 Entering Gaussian System, Link 0=/opt/apps/Gaussian/G16C/g16/g16
 Input=/home/svss/projects/Project-Philicity/GS/hydrocarbon/set-1/GS/mol_14_hc/mol_14_hc.com
 Output=/home/svss/projects/Project-Philicity/GS/hydrocarbon/set-1/GS/mol_14_hc/mol_14_hc.log
 Initial command:
 /opt/apps/Gaussian/G16C/g16/l1.exe "/home/svss/projects/Project-Philicity/GS/hydrocarbon/set-1/Gau-166920.inp" -scrdir="/home/svss/projects/Project-Philicity/GS/hydrocarbon/set-1/"
 Entering Link 1 = /opt/apps/Gaussian/G16C/g16/l1.exe PID=    166921.
  
 Copyright (c) 1988-2019, Gaussian, Inc.  All Rights Reserved.
  
 This is part of the Gaussian(R) 16 program.  It is based on
 the Gaussian(R) 09 system (copyright 2009, Gaussian, Inc.),
 the Gaussian(R) 03 system (copyright 2003, Gaussian, Inc.),
 the Gaussian(R) 98 system (copyright 1998, Gaussian, Inc.),
 the Gaussian(R) 94 system (copyright 1995, Gaussian, Inc.),
 the Gaussian 92(TM) system (copyright 1992, Gaussian, Inc.),
 the Gaussian 90(TM) system (copyright 1990, Gaussian, Inc.),
 the Gaussian 88(TM) system (copyright 1988, Gaussian, Inc.),
 the Gaussian 86(TM) system (copyright 1986, Carnegie Mellon
 University), and the Gaussian 82(TM) system (copyright 1983,
 Carnegie Mellon University). Gaussian is a federally registered
 trademark of Gaussian, Inc.
  
 This software contains proprietary and confidential information,
 including trade secrets, belonging to Gaussian, Inc.
  
 This software is provided under written license and may be
 used, copied, transmitted, or stored only in accord with that
 written license.
  
 The following legend is applicable only to US Government
 contracts under FAR:
  
                    RESTRICTED RIGHTS LEGEND
  
 Use, reproduction and disclosure by the US Government is
 subject to restrictions as set forth in subparagraphs (a)
 and (c) of the Commercial Computer Software - Restricted
 Rights clause in FAR 52.227-19.
  
 Gaussian, Inc.
 340 Quinnipiac St., Bldg. 40, Wallingford CT 06492
  
  
 ---------------------------------------------------------------
 Warning -- This program may not be used in any manner that
 competes with the business of Gaussian, Inc. or will provide
 assistance to any competitor of Gaussian, Inc.  The licensee
 of this program is prohibited from giving any competitor of
 Gaussian, Inc. access to this program.  By using this program,
 the user acknowledges that Gaussian, Inc. is engaged in the
 business of creating and licensing software in the field of
 computational chemistry and represents and warrants to the
 licensee that it is not a competitor of Gaussian, Inc. and that
 it will not use this program in any manner prohibited above.
 ---------------------------------------------------------------
  

 Cite this work as:
 Gaussian 16, Revision C.01,
 M. J. Frisch, G. W. Trucks, H. B. Schlegel, G. E. Scuseria, 
 M. A. Robb, J. R. Cheeseman, G. Scalmani, V. Barone, 
 G. A. Petersson, H. Nakatsuji, X. Li, M. Caricato, A. V. Marenich, 
 J. Bloino, B. G. Janesko, R. Gomperts, B. Mennucci, H. P. Hratchian, 
 J. V. Ortiz, A. F. Izmaylov, J. L. Sonnenberg, D. Williams-Young, 
 F. Ding, F. Lipparini, F. Egidi, J. Goings, B. Peng, A. Petrone, 
 T. Henderson, D. Ranasinghe, V. G. Zakrzewski, J. Gao, N. Rega, 
 G. Zheng, W. Liang, M. Hada, M. Ehara, K. Toyota, R. Fukuda, 
 J. Hasegawa, M. Ishida, T. Nakajima, Y. Honda, O. Kitao, H. Nakai, 
 T. Vreven, K. Throssell, J. A. Montgomery, Jr., J. E. Peralta, 
 F. Ogliaro, M. J. Bearpark, J. J. Heyd, E. N. Brothers, K. N. Kudin, 
 V. N. Staroverov, T. A. Keith, R. Kobayashi, J. Normand, 
 K. Raghavachari, A. P. Rendell, J. C. Burant, S. S. Iyengar, 
 J. Tomasi, M. Cossi, J. M. Millam, M. Klene, C. Adamo, R. Cammi, 
 J. W. Ochterski, R. L. Martin, K. Morokuma, O. Farkas, 
 J. B. Foresman, and D. J. Fox, Gaussian, Inc., Wallingford CT, 2019.
 
 ******************************************
 Gaussian 16:  AS64L-G16RevC.01  3-Jul-2019
                20-Jun-2022 
 ******************************************
 %nproc=8
 Will use up to    8 processors via shared memory.
 %mem=96GB
 %chk=/home/svss/projects/Project-Philicity/GS/hydrocarbon/set-1/GS/mol_14_hc/mol
 _14_hc.chk
 -------------------------
 # opt freq M062X/def2tzvp
 -------------------------
 1/18=20,19=15,26=3,38=1/1,3;
 2/9=110,12=2,17=6,18=5,40=1/2;
 3/5=44,7=101,11=2,25=1,30=1,71=1,74=-55/1,2,3;
 4//1;
 5/5=2,38=5/2;
 6/7=2,8=2,9=2,10=2,28=1/1;
 7//1,2,3,16;
 1/18=20,19=15,26=3/3(2);
 2/9=110/2;
 99//99;
 2/9=110/2;
 3/5=44,7=101,11=2,25=1,30=1,71=1,74=-55/1,2,3;
 4/5=5,16=3,69=1/1;
 5/5=2,38=5/2;
 7//1,2,3,16;
 1/18=20,19=15,26=3/3(-5);
 2/9=110/2;
 6/7=2,8=2,9=2,10=2,19=2,28=1/1;
 99/9=1/99;
 ----------------------------------------------------------------------
 converted from /home/svss/projects/Project-Philicity/GS/hydrocarbon/se
 t-1/GS/mol_14_hc/mol_14_hc_cregen_best.xyz
 ----------------------------------------------------------------------
 Symbolic Z-matrix:
 Charge =  0 Multiplicity = 1
 C                     2.77261   0.40311   0.00008 
 O                     1.79021  -0.60264   0.00003 
 C                     0.47773  -0.23266  -0.00011 
 C                    -0.44628  -1.27883  -0.00008 
 C                    -1.79935  -1.01388   0.00006 
 C                    -2.25613   0.29545   0.0001 
 C                    -1.34308   1.33244  -0.00003 
 C                     0.01948   1.07956  -0.00011 
 H                     2.70482   1.03298  -0.89318 
 H                     2.7055    1.032     0.89408 
 H                     3.72866  -0.11834  -0.00053 
 H                    -0.07251  -2.29067  -0.00013 
 H                    -2.50347  -1.83274   0.00013 
 H                    -3.3154    0.50285   0.00018 
 H                    -1.68732   2.35644   0.00013 
 H                     0.70817   1.91001   0.00001 
 

 GradGradGradGradGradGradGradGradGradGradGradGradGradGradGradGradGradGrad
 Berny optimization.
 Initialization pass.
                           ----------------------------
                           !    Initial Parameters    !
                           ! (Angstroms and Degrees)  !
 --------------------------                            --------------------------
 ! Name  Definition              Value          Derivative Info.                !
 --------------------------------------------------------------------------------
 ! R1    R(1,2)                  1.4059         estimate D2E/DX2                !
 ! R2    R(1,9)                  1.0951         estimate D2E/DX2                !
 ! R3    R(1,10)                 1.0951         estimate D2E/DX2                !
 ! R4    R(1,11)                 1.089          estimate D2E/DX2                !
 ! R5    R(2,3)                  1.3636         estimate D2E/DX2                !
 ! R6    R(3,4)                  1.3958         estimate D2E/DX2                !
 ! R7    R(3,8)                  1.3899         estimate D2E/DX2                !
 ! R8    R(4,5)                  1.3788         estimate D2E/DX2                !
 ! R9    R(4,12)                 1.0787         estimate D2E/DX2                !
 ! R10   R(5,6)                  1.3867         estimate D2E/DX2                !
 ! R11   R(5,13)                 1.08           estimate D2E/DX2                !
 ! R12   R(6,7)                  1.3817         estimate D2E/DX2                !
 ! R13   R(6,14)                 1.0794         estimate D2E/DX2                !
 ! R14   R(7,8)                  1.3858         estimate D2E/DX2                !
 ! R15   R(7,15)                 1.0803         estimate D2E/DX2                !
 ! R16   R(8,16)                 1.0789         estimate D2E/DX2                !
 ! A1    A(2,1,9)              111.6029         estimate D2E/DX2                !
 ! A2    A(2,1,10)             111.5938         estimate D2E/DX2                !
 ! A3    A(2,1,11)             105.7181         estimate D2E/DX2                !
 ! A4    A(9,1,10)             109.3779         estimate D2E/DX2                !
 ! A5    A(9,1,11)             109.2261         estimate D2E/DX2                !
 ! A6    A(10,1,11)            109.2225         estimate D2E/DX2                !
 ! A7    A(1,2,3)              118.5843         estimate D2E/DX2                !
 ! A8    A(2,3,4)              115.7091         estimate D2E/DX2                !
 ! A9    A(2,3,8)              124.9929         estimate D2E/DX2                !
 ! A10   A(4,3,8)              119.298          estimate D2E/DX2                !
 ! A11   A(3,4,5)              120.3728         estimate D2E/DX2                !
 ! A12   A(3,4,12)             118.274          estimate D2E/DX2                !
 ! A13   A(5,4,12)             121.3532         estimate D2E/DX2                !
 ! A14   A(4,5,6)              120.3112         estimate D2E/DX2                !
 ! A15   A(4,5,13)             119.6124         estimate D2E/DX2                !
 ! A16   A(6,5,13)             120.0764         estimate D2E/DX2                !
 ! A17   A(5,6,7)              119.4046         estimate D2E/DX2                !
 ! A18   A(5,6,14)             120.3102         estimate D2E/DX2                !
 ! A19   A(7,6,14)             120.2852         estimate D2E/DX2                !
 ! A20   A(6,7,8)              120.8493         estimate D2E/DX2                !
 ! A21   A(6,7,15)             120.0555         estimate D2E/DX2                !
 ! A22   A(8,7,15)             119.0952         estimate D2E/DX2                !
 ! A23   A(3,8,7)              119.7641         estimate D2E/DX2                !
 ! A24   A(3,8,16)             121.0811         estimate D2E/DX2                !
 ! A25   A(7,8,16)             119.1548         estimate D2E/DX2                !
 ! D1    D(9,1,2,3)            -61.3159         estimate D2E/DX2                !
 ! D2    D(10,1,2,3)            61.4041         estimate D2E/DX2                !
 ! D3    D(11,1,2,3)          -179.9605         estimate D2E/DX2                !
 ! D4    D(1,2,3,4)           -179.9967         estimate D2E/DX2                !
 ! D5    D(1,2,3,8)             -0.005          estimate D2E/DX2                !
 ! D6    D(2,3,4,5)            179.9869         estimate D2E/DX2                !
 ! D7    D(2,3,4,12)            -0.0108         estimate D2E/DX2                !
 ! D8    D(8,3,4,5)             -0.0053         estimate D2E/DX2                !
 ! D9    D(8,3,4,12)           179.997          estimate D2E/DX2                !
 ! D10   D(2,3,8,7)           -179.989          estimate D2E/DX2                !
 ! D11   D(2,3,8,16)            -0.0003         estimate D2E/DX2                !
 ! D12   D(4,3,8,7)              0.0024         estimate D2E/DX2                !
 ! D13   D(4,3,8,16)           179.9911         estimate D2E/DX2                !
 ! D14   D(3,4,5,6)              0.0035         estimate D2E/DX2                !
 ! D15   D(3,4,5,13)          -179.9971         estimate D2E/DX2                !
 ! D16   D(12,4,5,6)          -179.9989         estimate D2E/DX2                !
 ! D17   D(12,4,5,13)            0.0005         estimate D2E/DX2                !
 ! D18   D(4,5,6,7)              0.0013         estimate D2E/DX2                !
 ! D19   D(4,5,6,14)           179.9982         estimate D2E/DX2                !
 ! D20   D(13,5,6,7)          -179.9981         estimate D2E/DX2                !
 ! D21   D(13,5,6,14)           -0.0013         estimate D2E/DX2                !
 ! D22   D(5,6,7,8)             -0.0043         estimate D2E/DX2                !
 ! D23   D(5,6,7,15)          -179.992          estimate D2E/DX2                !
 ! D24   D(14,6,7,8)           179.9989         estimate D2E/DX2                !
 ! D25   D(14,6,7,15)            0.0112         estimate D2E/DX2                !
 ! D26   D(6,7,8,3)              0.0024         estimate D2E/DX2                !
 ! D27   D(6,7,8,16)          -179.9866         estimate D2E/DX2                !
 ! D28   D(15,7,8,3)           179.9902         estimate D2E/DX2                !
 ! D29   D(15,7,8,16)            0.0013         estimate D2E/DX2                !
 --------------------------------------------------------------------------------
 Trust Radius=3.00D-01 FncErr=1.00D-07 GrdErr=1.00D-06 EigMax=2.50D+02 EigMin=1.00D-04
 Number of steps in this run=     80 maximum allowed number of steps=    100.
 GradGradGradGradGradGradGradGradGradGradGradGradGradGradGradGradGradGrad

                          Input orientation:                          
 ---------------------------------------------------------------------
 Center     Atomic      Atomic             Coordinates (Angstroms)
 Number     Number       Type             X           Y           Z
 ---------------------------------------------------------------------
      1          6           0        2.772610    0.403110    0.000080
      2          8           0        1.790210   -0.602640    0.000030
      3          6           0        0.477730   -0.232660   -0.000110
      4          6           0       -0.446280   -1.278830   -0.000080
      5          6           0       -1.799350   -1.013880    0.000060
      6          6           0       -2.256130    0.295450    0.000100
      7          6           0       -1.343080    1.332440   -0.000030
      8          6           0        0.019480    1.079560   -0.000110
      9          1           0        2.704820    1.032980   -0.893180
     10          1           0        2.705500    1.032000    0.894080
     11          1           0        3.728660   -0.118340   -0.000530
     12          1           0       -0.072510   -2.290670   -0.000130
     13          1           0       -2.503470   -1.832740    0.000130
     14          1           0       -3.315400    0.502850    0.000180
     15          1           0       -1.687320    2.356440    0.000130
     16          1           0        0.708170    1.910010    0.000010
 ---------------------------------------------------------------------
                    Distance matrix (angstroms):
                    1          2          3          4          5
     1  C    0.000000
     2  O    1.405931   0.000000
     3  C    2.381318   1.363631   0.000000
     4  C    3.631828   2.336476   1.395803   0.000000
     5  C    4.786510   3.613040   2.407363   1.378766   0.000000
     6  C    5.029892   4.144808   2.784401   2.398732   1.386720
     7  C    4.219308   3.682668   2.401018   2.760975   2.390272
     8  C    2.835015   2.442393   1.389933   2.403942   2.773199
     9  H    1.095101   2.075955   2.712812   4.008931   5.027431
    10  H    1.095099   2.075844   2.713282   4.009136   5.027780
    11  H    1.089010   1.998033   3.252939   4.333228   5.600079
    12  H    3.918055   2.513796   2.130298   1.078668   2.147596
    13  H    5.730274   4.466412   3.383461   2.130457   1.079961
    14  H    6.088827   5.223922   3.863782   3.377312   2.144499
    15  H    4.868929   4.566111   3.375038   3.841272   3.372181
    16  H    2.555907   2.735730   2.155026   3.391380   3.851855
                    6          7          8          9         10
     6  C    0.000000
     7  C    1.381669   0.000000
     8  C    2.406913   1.385828   0.000000
     9  H    5.094401   4.156066   2.830335   0.000000
    10  H    5.095044   4.157006   2.831350   1.787260   0.000000
    11  H    5.999078   5.275160   3.897817   1.780621   1.780580
    12  H    3.384703   3.839437   3.371485   4.422414   4.422340
    13  H    2.142515   3.371182   3.853150   6.011376   6.011593
    14  H    1.079383   2.139688   3.384379   6.109188   6.109852
    15  H    2.138042   1.080313   2.131570   4.673376   4.674415
    16  H    3.375482   2.131012   1.078861   2.356604   2.357878
                   11         12         13         14         15
    11  H    0.000000
    12  H    4.378117   0.000000
    13  H    6.463638   2.473715   0.000000
    14  H    7.071397   4.280197   2.472693   0.000000
    15  H    5.954610   4.919679   4.267942   2.467071   0.000000
    16  H    3.638346   4.272607   4.931816   4.262536   2.436734
                   16
    16  H    0.000000
 Stoichiometry    C7H8O
 Framework group  C1[X(C7H8O)]
 Deg. of freedom    42
 Full point group                 C1      NOp   1
 Largest Abelian subgroup         C1      NOp   1
 Largest concise Abelian subgroup C1      NOp   1
                         Standard orientation:                         
 ---------------------------------------------------------------------
 Center     Atomic      Atomic             Coordinates (Angstroms)
 Number     Number       Type             X           Y           Z
 ---------------------------------------------------------------------
      1          6           0        2.760628    0.320704    0.000073
      2          8           0        1.756469   -0.663322    0.000023
      3          6           0        0.452394   -0.264729   -0.000117
      4          6           0       -0.494273   -1.290443   -0.000087
      5          6           0       -1.841226   -0.995967    0.000053
      6          6           0       -2.269264    0.323039    0.000093
      7          6           0       -1.333755    1.339814   -0.000037
      8          6           0        0.022949    1.057198   -0.000117
      9          1           0        2.706628    0.951906   -0.893187
     10          1           0        2.707287    0.950911    0.894073
     11          1           0        3.705046   -0.221529   -0.000537
     12          1           0       -0.142720   -2.310214   -0.000137
     13          1           0       -2.563084   -1.799233    0.000123
     14          1           0       -3.323745    0.553554    0.000173
     15          1           0       -1.655520    2.371097    0.000123
     16          1           0        0.729635    1.872389    0.000003
 ---------------------------------------------------------------------
 Rotational constants (GHZ):           5.1213827           1.5725830           1.2124354
 Standard basis: def2TZVP (5D, 7F)
 There are   336 symmetry adapted cartesian basis functions of A   symmetry.
 There are   296 symmetry adapted basis functions of A   symmetry.
   296 basis functions,   472 primitive gaussians,   336 cartesian basis functions
    29 alpha electrons       29 beta electrons
       nuclear repulsion energy       347.2650373899 Hartrees.
 NAtoms=   16 NActive=   16 NUniq=   16 SFac= 1.00D+00 NAtFMM=   60 NAOKFM=F Big=F
 Integral buffers will be    131072 words long.
 Raffenetti 2 integral format.
 Two-electron integral symmetry is turned on.
 One-electron integrals computed using PRISM.
   1 Symmetry operations used in ECPInt.
 ECPInt:  NShTT=    7260 NPrTT=   21936 LenC2=    7093 LenP2D=   17281.
 LDataN:  DoStor=T MaxTD1= 6 Len=  172
 NBasis=   296 RedAO= T EigKep=  9.13D-06  NBF=   296
 NBsUse=   296 1.00D-06 EigRej= -1.00D+00 NBFU=   296
 ExpMin= 9.52D-02 ExpMax= 2.70D+04 ExpMxC= 9.22D+02 IAcc=3 IRadAn=         5 AccDes= 0.00D+00
 Harris functional with IExCor= 1009 and IRadAn=       5 diagonalized for initial guess.
 HarFok:  IExCor= 1009 AccDes= 0.00D+00 IRadAn=         5 IDoV= 1 UseB2=F ITyADJ=14
 ICtDFT=  3500011 ScaDFX=  1.000000  1.000000  1.000000  1.000000
 FoFCou: FMM=F IPFlag=           0 FMFlag=      100000 FMFlg1=           0
         NFxFlg=           0 DoJE=T BraDBF=F KetDBF=T FulRan=T
         wScrn=  0.000000 ICntrl=       500 IOpCl=  0 I1Cent=   200000004 NGrid=           0
         NMat0=    1 NMatS0=      1 NMatT0=    0 NMatD0=    1 NMtDS0=    0 NMtDT0=    0
 Petite list used in FoFCou.
 Requested convergence on RMS density matrix=1.00D-08 within 128 cycles.
 Requested convergence on MAX density matrix=1.00D-06.
 Requested convergence on             energy=1.00D-06.
 No special actions if energy rises.
 Integral accuracy reduced to 1.0D-05 until final iterations.
 Initial convergence to 1.0D-05 achieved.  Increase integral accuracy.
 SCF Done:  E(RM062X) =  -346.750409238     A.U. after   14 cycles
            NFock= 14  Conv=0.55D-08     -V/T= 2.0047

 **********************************************************************

            Population analysis using the SCF Density.

 **********************************************************************

 Orbital symmetries:
       Occupied  (A) (A) (A) (A) (A) (A) (A) (A) (A) (A) (A) (A)
                 (A) (A) (A) (A) (A) (A) (A) (A) (A) (A) (A) (A)
                 (A) (A) (A) (A) (A)
       Virtual   (A) (A) (A) (A) (A) (A) (A) (A) (A) (A) (A) (A)
                 (A) (A) (A) (A) (A) (A) (A) (A) (A) (A) (A) (A)
                 (A) (A) (A) (A) (A) (A) (A) (A) (A) (A) (A) (A)
                 (A) (A) (A) (A) (A) (A) (A) (A) (A) (A) (A) (A)
                 (A) (A) (A) (A) (A) (A) (A) (A) (A) (A) (A) (A)
                 (A) (A) (A) (A) (A) (A) (A) (A) (A) (A) (A) (A)
                 (A) (A) (A) (A) (A) (A) (A) (A) (A) (A) (A) (A)
                 (A) (A) (A) (A) (A) (A) (A) (A) (A) (A) (A) (A)
                 (A) (A) (A) (A) (A) (A) (A) (A) (A) (A) (A) (A)
                 (A) (A) (A) (A) (A) (A) (A) (A) (A) (A) (A) (A)
                 (A) (A) (A) (A) (A) (A) (A) (A) (A) (A) (A) (A)
                 (A) (A) (A) (A) (A) (A) (A) (A) (A) (A) (A) (A)
                 (A) (A) (A) (A) (A) (A) (A) (A) (A) (A) (A) (A)
                 (A) (A) (A) (A) (A) (A) (A) (A) (A) (A) (A) (A)
                 (A) (A) (A) (A) (A) (A) (A) (A) (A) (A) (A) (A)
                 (A) (A) (A) (A) (A) (A) (A) (A) (A) (A) (A) (A)
                 (A) (A) (A) (A) (A) (A) (A) (A) (A) (A) (A) (A)
                 (A) (A) (A) (A) (A) (A) (A) (A) (A) (A) (A) (A)
                 (A) (A) (A) (A) (A) (A) (A) (A) (A) (A) (A) (A)
                 (A) (A) (A) (A) (A) (A) (A) (A) (A) (A) (A) (A)
                 (A) (A) (A) (A) (A) (A) (A) (A) (A) (A) (A) (A)
                 (A) (A) (A) (A) (A) (A) (A) (A) (A) (A) (A) (A)
                 (A) (A) (A)
 The electronic state is 1-A.
 Alpha  occ. eigenvalues --  -19.65548 -10.60100 -10.59021 -10.54060 -10.53919
 Alpha  occ. eigenvalues --  -10.53782 -10.53346 -10.53103  -1.19292  -0.96014
 Alpha  occ. eigenvalues --   -0.85615  -0.84521  -0.78761  -0.69492  -0.67431
 Alpha  occ. eigenvalues --   -0.61595  -0.55846  -0.55629  -0.55235  -0.51600
 Alpha  occ. eigenvalues --   -0.49079  -0.48094  -0.45187  -0.43139  -0.41930
 Alpha  occ. eigenvalues --   -0.39352  -0.39040  -0.31054  -0.27805
 Alpha virt. eigenvalues --    0.02333   0.03899   0.07396   0.09100   0.10873
 Alpha virt. eigenvalues --    0.11996   0.13119   0.13729   0.15065   0.15227
 Alpha virt. eigenvalues --    0.16086   0.18499   0.20163   0.23187   0.23606
 Alpha virt. eigenvalues --    0.24038   0.25203   0.25245   0.26727   0.27217
 Alpha virt. eigenvalues --    0.27785   0.28951   0.30947   0.32327   0.34120
 Alpha virt. eigenvalues --    0.35166   0.37401   0.37849   0.39323   0.39879
 Alpha virt. eigenvalues --    0.40887   0.41257   0.42894   0.43952   0.44719
 Alpha virt. eigenvalues --    0.45142   0.45761   0.47445   0.48637   0.49539
 Alpha virt. eigenvalues --    0.49921   0.51643   0.52188   0.52318   0.53699
 Alpha virt. eigenvalues --    0.54115   0.55587   0.59850   0.63431   0.63802
 Alpha virt. eigenvalues --    0.65936   0.66791   0.68829   0.69157   0.74482
 Alpha virt. eigenvalues --    0.74686   0.75145   0.77142   0.77617   0.79773
 Alpha virt. eigenvalues --    0.79834   0.81268   0.86435   0.88179   0.89911
 Alpha virt. eigenvalues --    0.91177   0.91702   0.92108   0.93757   0.98582
 Alpha virt. eigenvalues --    1.00789   1.00971   1.04471   1.05009   1.09927
 Alpha virt. eigenvalues --    1.10664   1.12417   1.14713   1.14920   1.23114
 Alpha virt. eigenvalues --    1.23518   1.24194   1.25359   1.26526   1.27605
 Alpha virt. eigenvalues --    1.29350   1.31917   1.33542   1.40412   1.44267
 Alpha virt. eigenvalues --    1.45368   1.46837   1.49403   1.49891   1.51728
 Alpha virt. eigenvalues --    1.52881   1.54613   1.56387   1.56547   1.56979
 Alpha virt. eigenvalues --    1.59370   1.60025   1.63743   1.65763   1.70904
 Alpha virt. eigenvalues --    1.70913   1.72275   1.72421   1.74357   1.75832
 Alpha virt. eigenvalues --    1.78036   1.79486   1.83439   1.86552   1.89979
 Alpha virt. eigenvalues --    1.91233   1.92337   1.95390   1.98379   1.99759
 Alpha virt. eigenvalues --    2.02090   2.07609   2.08751   2.09303   2.11556
 Alpha virt. eigenvalues --    2.14202   2.15086   2.19660   2.21010   2.24611
 Alpha virt. eigenvalues --    2.27149   2.27617   2.29270   2.31886   2.35011
 Alpha virt. eigenvalues --    2.36092   2.40644   2.41155   2.47176   2.47192
 Alpha virt. eigenvalues --    2.51786   2.54913   2.55393   2.56006   2.57992
 Alpha virt. eigenvalues --    2.61120   2.62240   2.64396   2.65176   2.69156
 Alpha virt. eigenvalues --    2.69216   2.69628   2.70264   2.70641   2.72422
 Alpha virt. eigenvalues --    2.76733   2.77555   2.78107   2.78432   2.81681
 Alpha virt. eigenvalues --    2.82380   2.85204   2.85546   2.86874   2.87111
 Alpha virt. eigenvalues --    2.88925   2.91517   2.92353   2.94983   3.03114
 Alpha virt. eigenvalues --    3.04373   3.05135   3.05961   3.08892   3.10955
 Alpha virt. eigenvalues --    3.14018   3.14771   3.15720   3.16276   3.20689
 Alpha virt. eigenvalues --    3.21559   3.22990   3.23012   3.24780   3.25039
 Alpha virt. eigenvalues --    3.26411   3.27615   3.31237   3.32826   3.34666
 Alpha virt. eigenvalues --    3.36134   3.38535   3.38806   3.40234   3.44131
 Alpha virt. eigenvalues --    3.45275   3.47707   3.48517   3.49145   3.51716
 Alpha virt. eigenvalues --    3.52389   3.53682   3.55760   3.56896   3.59127
 Alpha virt. eigenvalues --    3.59816   3.66297   3.70596   3.75481   3.78201
 Alpha virt. eigenvalues --    3.79218   3.79571   3.92246   3.94458   4.02133
 Alpha virt. eigenvalues --    4.05385   4.06533   4.09574   4.11449   4.14423
 Alpha virt. eigenvalues --    4.16488   4.17162   4.19544   4.20718   4.21629
 Alpha virt. eigenvalues --    4.22716   4.26487   4.28223   4.29580   4.38042
 Alpha virt. eigenvalues --    4.44371   4.51910   4.57051   4.57092   4.61085
 Alpha virt. eigenvalues --    4.63595   4.68906   4.79173   4.86307   4.88112
 Alpha virt. eigenvalues --    4.89948   5.13301   5.17532   5.21168   5.24906
 Alpha virt. eigenvalues --    5.36577   5.36859   5.46048   5.59503   5.75631
 Alpha virt. eigenvalues --    5.90780   5.97356   6.30621   6.49082   6.63661
 Alpha virt. eigenvalues --    6.76358   6.85160   7.15130   7.36822  22.15533
 Alpha virt. eigenvalues --   22.50216  22.72449  22.74081  22.83436  22.93245
 Alpha virt. eigenvalues --   23.35231  44.36259
          Condensed to atoms (all electrons):
               1          2          3          4          5          6
     1  C    4.900896   0.233094  -0.089518   0.008480  -0.002155   0.001633
     2  O    0.233094   7.946480   0.354732  -0.065494   0.003446  -0.001016
     3  C   -0.089518   0.354732   4.811288   0.459462  -0.005139  -0.081727
     4  C    0.008480  -0.065494   0.459462   4.980036   0.505501  -0.026897
     5  C   -0.002155   0.003446  -0.005139   0.505501   4.891819   0.488315
     6  C    0.001633  -0.001016  -0.081727  -0.026897   0.488315   4.936093
     7  C   -0.006504   0.010458   0.072654  -0.101411   0.005496   0.477663
     8  C    0.006115  -0.085356   0.291554   0.060776  -0.111103   0.016520
     9  H    0.416096  -0.042251  -0.011855   0.001633  -0.000293   0.000148
    10  H    0.416143  -0.042269  -0.011848   0.001633  -0.000294   0.000149
    11  H    0.403208  -0.031796   0.006385  -0.001100   0.000173  -0.000074
    12  H    0.000108   0.008982  -0.050252   0.412642  -0.037433   0.008573
    13  H    0.000025  -0.000148   0.009139  -0.041269   0.419213  -0.040869
    14  H   -0.000001   0.000013  -0.000814   0.004892  -0.036455   0.413627
    15  H   -0.000065  -0.000115  -0.000098   0.001950   0.001319  -0.024625
    16  H    0.008056  -0.006040  -0.036888   0.001129   0.001156   0.001017
               7          8          9         10         11         12
     1  C   -0.006504   0.006115   0.416096   0.416143   0.403208   0.000108
     2  O    0.010458  -0.085356  -0.042251  -0.042269  -0.031796   0.008982
     3  C    0.072654   0.291554  -0.011855  -0.011848   0.006385  -0.050252
     4  C   -0.101411   0.060776   0.001633   0.001633  -0.001100   0.412642
     5  C    0.005496  -0.111103  -0.000293  -0.000294   0.000173  -0.037433
     6  C    0.477663   0.016520   0.000148   0.000149  -0.000074   0.008573
     7  C    5.035939   0.311199  -0.001397  -0.001407   0.000413  -0.005067
     8  C    0.311199   5.335708   0.006676   0.006680  -0.001416   0.015193
     9  H   -0.001397   0.006676   0.565193  -0.060022  -0.020527   0.000130
    10  H   -0.001407   0.006680  -0.060022   0.565113  -0.020532   0.000130
    11  H    0.000413  -0.001416  -0.020527  -0.020532   0.513304  -0.000246
    12  H   -0.005067   0.015193   0.000130   0.000130  -0.000246   0.503854
    13  H    0.008206  -0.003665  -0.000002  -0.000002   0.000000  -0.006278
    14  H   -0.037732   0.007842   0.000002   0.000002  -0.000000  -0.000166
    15  H    0.394455  -0.020205  -0.000018  -0.000018   0.000002   0.000079
    16  H   -0.013099   0.401807  -0.001364  -0.001353  -0.000238  -0.000150
              13         14         15         16
     1  C    0.000025  -0.000001  -0.000065   0.008056
     2  O   -0.000148   0.000013  -0.000115  -0.006040
     3  C    0.009139  -0.000814  -0.000098  -0.036888
     4  C   -0.041269   0.004892   0.001950   0.001129
     5  C    0.419213  -0.036455   0.001319   0.001156
     6  C   -0.040869   0.413627  -0.024625   0.001017
     7  C    0.008206  -0.037732   0.394455  -0.013099
     8  C   -0.003665   0.007842  -0.020205   0.401807
     9  H   -0.000002   0.000002  -0.000018  -0.001364
    10  H   -0.000002   0.000002  -0.000018  -0.001353
    11  H    0.000000  -0.000000   0.000002  -0.000238
    12  H   -0.006278  -0.000166   0.000079  -0.000150
    13  H    0.518701  -0.004149  -0.000319   0.000051
    14  H   -0.004149   0.518017  -0.003683  -0.000259
    15  H   -0.000319  -0.003683   0.511942  -0.002532
    16  H    0.000051  -0.000259  -0.002532   0.491303
 Mulliken charges:
               1
     1  C   -0.295612
     2  O   -0.282719
     3  C    0.282927
     4  C   -0.201962
     5  C   -0.123566
     6  C   -0.168530
     7  C   -0.149866
     8  C   -0.238327
     9  H    0.147852
    10  H    0.147895
    11  H    0.152443
    12  H    0.149902
    13  H    0.141366
    14  H    0.138864
    15  H    0.141930
    16  H    0.157402
 Sum of Mulliken charges =  -0.00000
 Mulliken charges with hydrogens summed into heavy atoms:
               1
     1  C    0.152579
     2  O   -0.282719
     3  C    0.282927
     4  C   -0.052061
     5  C    0.017800
     6  C   -0.029666
     7  C   -0.007936
     8  C   -0.080925
 Electronic spatial extent (au):  <R**2>=            974.1403
 Charge=             -0.0000 electrons
 Dipole moment (field-independent basis, Debye):
    X=              0.6840    Y=              1.0460    Z=              0.0002  Tot=              1.2498
 Quadrupole moment (field-independent basis, Debye-Ang):
   XX=            -40.6400   YY=            -44.4031   ZZ=            -51.4126
   XY=              2.8349   XZ=             -0.0006   YZ=              0.0005
 Traceless Quadrupole moment (field-independent basis, Debye-Ang):
   XX=              4.8452   YY=              1.0821   ZZ=             -5.9274
   XY=              2.8349   XZ=             -0.0006   YZ=              0.0005
 Octapole moment (field-independent basis, Debye-Ang**2):
  XXX=             17.2020  YYY=             -1.9017  ZZZ=              0.0022  XYY=             -1.9844
  XXY=              3.2762  XXZ=              0.0014  XZZ=              8.3131  YZZ=             -0.6669
  YYZ=              0.0002  XYZ=              0.0002
 Hexadecapole moment (field-independent basis, Debye-Ang**3):
 XXXX=           -826.1414 YYYY=           -303.8224 ZZZZ=            -65.0528 XXXY=              1.5320
 XXXZ=             -0.0101 YYYX=             -2.1481 YYYZ=              0.0014 ZZZX=              0.0048
 ZZZY=              0.0009 XXYY=           -201.2009 XXZZ=           -176.0286 YYZZ=            -71.9353
 XXYZ=              0.0029 YYXZ=             -0.0040 ZZXY=              0.5109
 N-N= 3.472650373899D+02 E-N=-1.501503616987D+03  KE= 3.451237969333D+02
   1 Symmetry operations used in ECPInt.
 ECPInt:  NShTT=    7260 NPrTT=   21936 LenC2=    7093 LenP2D=   17281.
 LDataN:  DoStor=T MaxTD1= 7 Len=  274
 Calling FoFJK, ICntrl=      2127 FMM=F ISym2X=0 I1Cent= 0 IOpClX= 0 NMat=1 NMatS=1 NMatT=0.
 ***** Axes restored to original set *****
 -------------------------------------------------------------------
 Center     Atomic                   Forces (Hartrees/Bohr)
 Number     Number              X              Y              Z
 -------------------------------------------------------------------
      1        6           0.001652248    0.001190844    0.000012174
      2        8          -0.006647646    0.000128751   -0.000021484
      3        6           0.001382229   -0.002828855    0.000013270
      4        6           0.003319937   -0.000165840   -0.000000583
      5        6           0.000883182   -0.000801801   -0.000005904
      6        6          -0.003075034    0.002675868   -0.000007496
      7        6          -0.002897252   -0.000355862    0.000011814
      8        6           0.007178565    0.000742588    0.000008502
      9        1          -0.000560850   -0.000440321    0.000863171
     10        1          -0.000562491   -0.000422950   -0.000867057
     11        1          -0.000740041    0.001438437   -0.000001561
     12        1           0.001060585   -0.002189735    0.000002416
     13        1          -0.000854179   -0.001483042   -0.000000024
     14        1          -0.001569090    0.000387542    0.000002593
     15        1          -0.000395601    0.001418480   -0.000006416
     16        1           0.001825436    0.000705896   -0.000003414
 -------------------------------------------------------------------
 Cartesian Forces:  Max     0.007178565 RMS     0.001884917

 GradGradGradGradGradGradGradGradGradGradGradGradGradGradGradGradGradGrad
 Berny optimization.
 FormGI is forming the generalized inverse of G from B-inverse, IUseBI=4.
 Internal  Forces:  Max     0.007122359 RMS     0.001894638
 Search for a local minimum.
 Step number   1 out of a maximum of   80
 All quantities printed in internal units (Hartrees-Bohrs-Radians)
 Mixed Optimization -- RFO/linear search
 Second derivative matrix not updated -- first step.
 ITU=  0
     Eigenvalues ---    0.01613   0.02173   0.02182   0.02204   0.02247
     Eigenvalues ---    0.02260   0.02282   0.02292   0.02306   0.02311
     Eigenvalues ---    0.02330   0.10087   0.10732   0.16000   0.16000
     Eigenvalues ---    0.16000   0.16000   0.16000   0.16000   0.16000
     Eigenvalues ---    0.16000   0.22000   0.22000   0.23479   0.25000
     Eigenvalues ---    0.25000   0.34230   0.34230   0.34927   0.35956
     Eigenvalues ---    0.35999   0.36069   0.36132   0.36156   0.43035
     Eigenvalues ---    0.43450   0.44652   0.47140   0.47639   0.48366
     Eigenvalues ---    0.48980   0.52220
 RFO step:  Lambda=-7.74353206D-04 EMin= 1.61332064D-02
 Linear search not attempted -- first point.
 Iteration  1 RMS(Cart)=  0.03242449 RMS(Int)=  0.00035601
 Iteration  2 RMS(Cart)=  0.00057188 RMS(Int)=  0.00001201
 Iteration  3 RMS(Cart)=  0.00000015 RMS(Int)=  0.00001201
 Variable       Old X    -DE/DX   Delta X   Delta X   Delta X     New X
                                 (Linear)    (Quad)   (Total)
    R1        2.65683   0.00113   0.00000   0.00252   0.00252   2.65934
    R2        2.06944  -0.00092   0.00000  -0.00268  -0.00268   2.06676
    R3        2.06944  -0.00091   0.00000  -0.00266  -0.00266   2.06677
    R4        2.05793  -0.00134   0.00000  -0.00383  -0.00383   2.05410
    R5        2.57689  -0.00712   0.00000  -0.01362  -0.01362   2.56327
    R6        2.63769  -0.00102   0.00000  -0.00261  -0.00261   2.63508
    R7        2.62659  -0.00012   0.00000  -0.00056  -0.00055   2.62604
    R8        2.60549   0.00293   0.00000   0.00584   0.00584   2.61133
    R9        2.03839   0.00242   0.00000   0.00669   0.00669   2.04507
   R10        2.62052   0.00502   0.00000   0.01077   0.01076   2.63129
   R11        2.04083   0.00168   0.00000   0.00466   0.00466   2.04549
   R12        2.61098   0.00236   0.00000   0.00523   0.00522   2.61620
   R13        2.03974   0.00161   0.00000   0.00446   0.00446   2.04420
   R14        2.61883   0.00519   0.00000   0.01089   0.01089   2.62972
   R15        2.04150   0.00147   0.00000   0.00408   0.00408   2.04557
   R16        2.03875   0.00171   0.00000   0.00472   0.00472   2.04347
    A1        1.94784  -0.00090   0.00000  -0.00658  -0.00661   1.94123
    A2        1.94768  -0.00088   0.00000  -0.00642  -0.00645   1.94123
    A3        1.84513   0.00194   0.00000   0.01392   0.01391   1.85904
    A4        1.90900  -0.00020   0.00000  -0.00443  -0.00449   1.90451
    A5        1.90636   0.00006   0.00000   0.00217   0.00217   1.90853
    A6        1.90629   0.00006   0.00000   0.00225   0.00225   1.90854
    A7        2.06969  -0.00705   0.00000  -0.02809  -0.02809   2.04159
    A8        2.01951   0.00173   0.00000   0.00744   0.00744   2.02694
    A9        2.18154  -0.00527   0.00000  -0.02046  -0.02047   2.16107
   A10        2.08214   0.00354   0.00000   0.01302   0.01303   2.09517
   A11        2.10090  -0.00162   0.00000  -0.00813  -0.00813   2.09277
   A12        2.06427   0.00056   0.00000   0.00255   0.00255   2.06682
   A13        2.11801   0.00105   0.00000   0.00558   0.00558   2.12360
   A14        2.09983   0.00075   0.00000   0.00413   0.00412   2.10395
   A15        2.08763  -0.00070   0.00000  -0.00412  -0.00412   2.08351
   A16        2.09573  -0.00004   0.00000  -0.00001  -0.00000   2.09573
   A17        2.08400  -0.00119   0.00000  -0.00354  -0.00355   2.08046
   A18        2.09981   0.00067   0.00000   0.00224   0.00224   2.10205
   A19        2.09937   0.00052   0.00000   0.00130   0.00131   2.10068
   A20        2.10922   0.00001   0.00000   0.00146   0.00145   2.11067
   A21        2.09536   0.00007   0.00000  -0.00026  -0.00026   2.09510
   A22        2.07860  -0.00008   0.00000  -0.00119  -0.00119   2.07741
   A23        2.09028  -0.00150   0.00000  -0.00693  -0.00692   2.08335
   A24        2.11326  -0.00022   0.00000  -0.00257  -0.00257   2.11069
   A25        2.07964   0.00172   0.00000   0.00950   0.00950   2.08914
    D1       -1.07016   0.00076   0.00000   0.00718   0.00713  -1.06303
    D2        1.07170  -0.00078   0.00000  -0.00799  -0.00795   1.06375
    D3       -3.14090  -0.00000   0.00000  -0.00032  -0.00032  -3.14123
    D4       -3.14153  -0.00001   0.00000  -0.00034  -0.00034   3.14131
    D5       -0.00009  -0.00000   0.00000  -0.00017  -0.00017  -0.00026
    D6        3.14136   0.00001   0.00000   0.00028   0.00028  -3.14155
    D7       -0.00019   0.00000   0.00000   0.00020   0.00020   0.00001
    D8       -0.00009   0.00000   0.00000   0.00012   0.00012   0.00002
    D9        3.14154   0.00000   0.00000   0.00004   0.00004   3.14158
   D10       -3.14140  -0.00001   0.00000  -0.00023  -0.00023   3.14156
   D11       -0.00000  -0.00000   0.00000  -0.00006  -0.00006  -0.00006
   D12        0.00004  -0.00000   0.00000  -0.00005  -0.00005  -0.00001
   D13        3.14144   0.00000   0.00000   0.00012   0.00012   3.14155
   D14        0.00006  -0.00000   0.00000  -0.00008  -0.00008  -0.00002
   D15       -3.14154  -0.00000   0.00000  -0.00006  -0.00006   3.14158
   D16       -3.14157  -0.00000   0.00000   0.00000   0.00000  -3.14157
   D17        0.00001   0.00000   0.00000   0.00002   0.00002   0.00003
   D18        0.00002  -0.00000   0.00000  -0.00002  -0.00002  -0.00000
   D19        3.14156   0.00000   0.00000   0.00003   0.00003   3.14159
   D20       -3.14156  -0.00000   0.00000  -0.00004  -0.00004   3.14158
   D21       -0.00002   0.00000   0.00000   0.00001   0.00001  -0.00001
   D22       -0.00008   0.00000   0.00000   0.00009   0.00009   0.00001
   D23       -3.14145  -0.00000   0.00000  -0.00013  -0.00013  -3.14159
   D24        3.14157   0.00000   0.00000   0.00004   0.00004  -3.14158
   D25        0.00019  -0.00000   0.00000  -0.00018  -0.00018   0.00001
   D26        0.00004  -0.00000   0.00000  -0.00005  -0.00005  -0.00001
   D27       -3.14136  -0.00000   0.00000  -0.00021  -0.00021  -3.14157
   D28        3.14142   0.00000   0.00000   0.00017   0.00017  -3.14159
   D29        0.00002   0.00000   0.00000   0.00000   0.00000   0.00003
         Item               Value     Threshold  Converged?
 Maximum Force            0.007122     0.000450     NO 
 RMS     Force            0.001895     0.000300     NO 
 Maximum Displacement     0.114426     0.001800     NO 
 RMS     Displacement     0.032748     0.001200     NO 
 Predicted change in Energy=-3.881896D-04
 GradGradGradGradGradGradGradGradGradGradGradGradGradGradGradGradGradGrad

                          Input orientation:                          
 ---------------------------------------------------------------------
 Center     Atomic      Atomic             Coordinates (Angstroms)
 Number     Number       Type             X           Y           Z
 ---------------------------------------------------------------------
      1          6           0        2.741755    0.415717   -0.000057
      2          8           0        1.789910   -0.620808    0.000162
      3          6           0        0.483369   -0.256342    0.000152
      4          6           0       -0.444642   -1.297116    0.000018
      5          6           0       -1.797223   -1.014181   -0.000059
      6          6           0       -2.244394    0.304478    0.000018
      7          6           0       -1.316837    1.332239    0.000173
      8          6           0        0.048561    1.063523    0.000238
      9          1           0        2.644408    1.042472   -0.891033
     10          1           0        2.644948    1.042351    0.891075
     11          1           0        3.718346   -0.061569   -0.000396
     12          1           0       -0.077024   -2.314971   -0.000060
     13          1           0       -2.510086   -1.828723   -0.000172
     14          1           0       -3.303640    0.523959   -0.000047
     15          1           0       -1.649420    2.362351    0.000240
     16          1           0        0.755610    1.881700    0.000378
 ---------------------------------------------------------------------
                    Distance matrix (angstroms):
                    1          2          3          4          5
     1  C    0.000000
     2  O    1.407264   0.000000
     3  C    2.356262   1.356424   0.000000
     4  C    3.617585   2.334655   1.394422   0.000000
     5  C    4.758879   3.608638   2.403210   1.381857   0.000000
     6  C    4.987390   4.139054   2.784818   2.409194   1.392417
     7  C    4.160791   3.669642   2.400902   2.770241   2.395090
     8  C    2.770008   2.422657   1.389641   2.411611   2.779168
     9  H    1.093681   2.071448   2.674177   3.976163   4.975112
    10  H    1.093690   2.071452   2.674467   3.976513   4.975573
    11  H    1.086983   2.007887   3.240835   4.342470   5.597229
    12  H    3.924560   2.521038   2.133540   1.082207   2.156650
    13  H    5.711335   4.466433   3.381295   2.132760   1.082429
    14  H    6.046364   5.220608   3.866563   3.389718   2.152944
    15  H    4.803312   4.552827   3.377328   3.852687   3.379766
    16  H    2.468578   2.707827   2.155306   3.397864   3.860451
                    6          7          8          9         10
     6  C    0.000000
     7  C    1.384433   0.000000
     8  C    2.415325   1.391590   0.000000
     9  H    5.023842   4.070587   2.744672   0.000000
    10  H    5.024351   4.071055   2.745043   1.782108   0.000000
    11  H    5.973965   5.224535   3.838378   1.779181   1.779197
    12  H    3.399854   3.852178   3.380827   4.412759   4.413033
    13  H    2.149684   3.378687   3.861575   5.967093   5.967559
    14  H    1.081746   2.144925   3.395348   6.036720   6.037262
    15  H    2.142157   1.082471   2.137779   4.579674   4.580130
    16  H    3.389344   2.144049   1.081357   2.250883   2.251099
                   11         12         13         14         15
    11  H    0.000000
    12  H    4.413915   0.000000
    13  H    6.474272   2.481175   0.000000
    14  H    7.046356   4.297741   2.482910   0.000000
    15  H    5.889678   4.934549   4.278534   2.473081   0.000000
    16  H    3.543177   4.278473   4.942875   4.280301   2.452590
                   16
    16  H    0.000000
 Stoichiometry    C7H8O
 Framework group  C1[X(C7H8O)]
 Deg. of freedom    42
 Full point group                 C1      NOp   1
 Largest Abelian subgroup         C1      NOp   1
 Largest concise Abelian subgroup C1      NOp   1
                         Standard orientation:                         
 ---------------------------------------------------------------------
 Center     Atomic      Atomic             Coordinates (Angstroms)
 Number     Number       Type             X           Y           Z
 ---------------------------------------------------------------------
      1          6           0        2.727444    0.329943   -0.000129
      2          8           0        1.749630   -0.682121    0.000090
      3          6           0        0.452748   -0.284652    0.000080
      4          6           0       -0.501348   -1.301567   -0.000054
      5          6           0       -1.846322   -0.984436   -0.000131
      6          6           0       -2.259923    0.345135   -0.000054
      7          6           0       -1.306611    1.349052    0.000101
      8          6           0        0.051538    1.045811    0.000166
      9          1           0        2.646016    0.958964   -0.891105
     10          1           0        2.646553    0.958829    0.891003
     11          1           0        3.691622   -0.171946   -0.000468
     12          1           0       -0.159650   -2.328414   -0.000132
     13          1           0       -2.579604   -1.780646   -0.000244
     14          1           0       -3.313264    0.591396   -0.000120
     15          1           0       -1.612974    2.387265    0.000168
     16          1           0        0.779099    1.845802    0.000306
 ---------------------------------------------------------------------
 Rotational constants (GHZ):           5.0754309           1.5943776           1.2226461
 Standard basis: def2TZVP (5D, 7F)
 There are   336 symmetry adapted cartesian basis functions of A   symmetry.
 There are   296 symmetry adapted basis functions of A   symmetry.
   296 basis functions,   472 primitive gaussians,   336 cartesian basis functions
    29 alpha electrons       29 beta electrons
       nuclear repulsion energy       347.7873382710 Hartrees.
 NAtoms=   16 NActive=   16 NUniq=   16 SFac= 1.00D+00 NAtFMM=   60 NAOKFM=F Big=F
 Integral buffers will be    131072 words long.
 Raffenetti 2 integral format.
 Two-electron integral symmetry is turned on.
 One-electron integrals computed using PRISM.
   1 Symmetry operations used in ECPInt.
 ECPInt:  NShTT=    7260 NPrTT=   21936 LenC2=    7096 LenP2D=   17306.
 LDataN:  DoStor=T MaxTD1= 6 Len=  172
 NBasis=   296 RedAO= T EigKep=  9.38D-06  NBF=   296
 NBsUse=   296 1.00D-06 EigRej= -1.00D+00 NBFU=   296
 Initial guess from the checkpoint file:  "/home/svss/projects/Project-Philicity/GS/hydrocarbon/set-1/GS/mol_14_hc/mol_14_hc.chk"
 B after Tr=    -0.000000   -0.000000   -0.000000
         Rot=    0.999997   -0.000015    0.000002    0.002605 Ang=  -0.30 deg.
 ExpMin= 9.52D-02 ExpMax= 2.70D+04 ExpMxC= 9.22D+02 IAcc=3 IRadAn=         5 AccDes= 0.00D+00
 Harris functional with IExCor= 1009 and IRadAn=       5 diagonalized for initial guess.
 HarFok:  IExCor= 1009 AccDes= 0.00D+00 IRadAn=         5 IDoV= 1 UseB2=F ITyADJ=14
 ICtDFT=  3500011 ScaDFX=  1.000000  1.000000  1.000000  1.000000
 FoFCou: FMM=F IPFlag=           0 FMFlag=      100000 FMFlg1=           0
         NFxFlg=           0 DoJE=T BraDBF=F KetDBF=T FulRan=T
         wScrn=  0.000000 ICntrl=       500 IOpCl=  0 I1Cent=   200000004 NGrid=           0
         NMat0=    1 NMatS0=      1 NMatT0=    0 NMatD0=    1 NMtDS0=    0 NMtDT0=    0
 Petite list used in FoFCou.
 Requested convergence on RMS density matrix=1.00D-08 within 128 cycles.
 Requested convergence on MAX density matrix=1.00D-06.
 Requested convergence on             energy=1.00D-06.
 No special actions if energy rises.
 Integral accuracy reduced to 1.0D-05 until final iterations.
 Initial convergence to 1.0D-05 achieved.  Increase integral accuracy.
 SCF Done:  E(RM062X) =  -346.750623154     A.U. after   11 cycles
            NFock= 11  Conv=0.75D-08     -V/T= 2.0048
   1 Symmetry operations used in ECPInt.
 ECPInt:  NShTT=    7260 NPrTT=   21936 LenC2=    7096 LenP2D=   17306.
 LDataN:  DoStor=T MaxTD1= 7 Len=  274
 Calling FoFJK, ICntrl=      2127 FMM=F ISym2X=0 I1Cent= 0 IOpClX= 0 NMat=1 NMatS=1 NMatT=0.
 ***** Axes restored to original set *****
 -------------------------------------------------------------------
 Center     Atomic                   Forces (Hartrees/Bohr)
 Number     Number              X              Y              Z
 -------------------------------------------------------------------
      1        6           0.002310809    0.000153061    0.000004489
      2        8           0.000140154   -0.000019426   -0.000002731
      3        6          -0.000258304   -0.000563430   -0.000001519
      4        6          -0.000613360   -0.000159553   -0.000001363
      5        6           0.000495590    0.000125334    0.000002309
      6        6           0.000272732    0.000584253   -0.000000249
      7        6          -0.000645102   -0.000745439   -0.000000427
      8        6          -0.000457014    0.001518039    0.000002172
      9        1           0.000233908   -0.000186540    0.000022601
     10        1           0.000234122   -0.000187608   -0.000027454
     11        1          -0.000282924   -0.000188495    0.000002255
     12        1          -0.000116486    0.000225187    0.000000567
     13        1          -0.000057108    0.000030777   -0.000000502
     14        1           0.000209698   -0.000129716    0.000000272
     15        1          -0.000043736    0.000011854    0.000000184
     16        1          -0.001422980   -0.000468297   -0.000000604
 -------------------------------------------------------------------
 Cartesian Forces:  Max     0.002310809 RMS     0.000520481

 GradGradGradGradGradGradGradGradGradGradGradGradGradGradGradGradGradGrad
 Berny optimization.
 Using GEDIIS/GDIIS optimizer.
 FormGI is forming the generalized inverse of G from B-inverse, IUseBI=4.
 Internal  Forces:  Max     0.006645129 RMS     0.001086677
 Search for a local minimum.
 Step number   2 out of a maximum of   80
 All quantities printed in internal units (Hartrees-Bohrs-Radians)
 Mixed Optimization -- RFO/linear search
 Update second derivatives using D2CorX and points    1    2
 DE= -2.14D-04 DEPred=-3.88D-04 R= 5.51D-01
 TightC=F SS=  1.41D+00  RLast= 5.30D-02 DXNew= 5.0454D-01 1.5906D-01
 Trust test= 5.51D-01 RLast= 5.30D-02 DXMaxT set to 3.00D-01
 ITU=  1  0
 Use linear search instead of GDIIS.
     Eigenvalues ---    0.01613   0.02173   0.02182   0.02203   0.02247
     Eigenvalues ---    0.02260   0.02283   0.02292   0.02306   0.02311
     Eigenvalues ---    0.02330   0.10191   0.10667   0.15906   0.16000
     Eigenvalues ---    0.16000   0.16000   0.16000   0.16000   0.16000
     Eigenvalues ---    0.16136   0.21575   0.22006   0.23232   0.24989
     Eigenvalues ---    0.33485   0.34230   0.34239   0.34843   0.35700
     Eigenvalues ---    0.35974   0.36050   0.36112   0.37793   0.42623
     Eigenvalues ---    0.44035   0.44894   0.46722   0.47576   0.48194
     Eigenvalues ---    0.49124   0.57960
 RFO step:  Lambda=-5.55222547D-05 EMin= 1.61330798D-02
 Quartic linear search produced a step of -0.31045.
 Iteration  1 RMS(Cart)=  0.01532083 RMS(Int)=  0.00007275
 Iteration  2 RMS(Cart)=  0.00010659 RMS(Int)=  0.00000358
 Iteration  3 RMS(Cart)=  0.00000000 RMS(Int)=  0.00000358
 Variable       Old X    -DE/DX   Delta X   Delta X   Delta X     New X
                                 (Linear)    (Quad)   (Total)
    R1        2.65934   0.00140  -0.00078   0.00317   0.00239   2.66173
    R2        2.06676  -0.00014   0.00083  -0.00137  -0.00054   2.06622
    R3        2.06677  -0.00015   0.00083  -0.00137  -0.00055   2.06623
    R4        2.05410  -0.00017   0.00119  -0.00189  -0.00070   2.05340
    R5        2.56327   0.00264   0.00423  -0.00190   0.00232   2.56559
    R6        2.63508   0.00040   0.00081  -0.00036   0.00045   2.63552
    R7        2.62604   0.00185   0.00017   0.00261   0.00278   2.62882
    R8        2.61133  -0.00051  -0.00181   0.00155  -0.00026   2.61107
    R9        2.04507  -0.00025  -0.00208   0.00222   0.00014   2.04522
   R10        2.63129  -0.00047  -0.00334   0.00346   0.00012   2.63140
   R11        2.04549   0.00002  -0.00145   0.00191   0.00046   2.04596
   R12        2.61620  -0.00102  -0.00162   0.00055  -0.00107   2.61513
   R13        2.04420  -0.00023  -0.00139   0.00135  -0.00003   2.04417
   R14        2.62972   0.00025  -0.00338   0.00475   0.00136   2.63109
   R15        2.04557   0.00002  -0.00127   0.00169   0.00042   2.04599
   R16        2.04347  -0.00129  -0.00146  -0.00055  -0.00202   2.04145
    A1        1.94123   0.00025   0.00205  -0.00158   0.00048   1.94171
    A2        1.94123   0.00025   0.00200  -0.00151   0.00050   1.94173
    A3        1.85904  -0.00063  -0.00432   0.00292  -0.00140   1.85764
    A4        1.90451   0.00018   0.00139  -0.00053   0.00088   1.90539
    A5        1.90853  -0.00004  -0.00067   0.00040  -0.00027   1.90826
    A6        1.90854  -0.00004  -0.00070   0.00043  -0.00027   1.90827
    A7        2.04159   0.00665   0.00872   0.00674   0.01546   2.05705
    A8        2.02694  -0.00225  -0.00231  -0.00332  -0.00563   2.02132
    A9        2.16107   0.00357   0.00635   0.00122   0.00758   2.16865
   A10        2.09517  -0.00132  -0.00404   0.00210  -0.00195   2.09322
   A11        2.09277   0.00066   0.00252  -0.00135   0.00118   2.09395
   A12        2.06682  -0.00030  -0.00079   0.00014  -0.00065   2.06617
   A13        2.12360  -0.00036  -0.00173   0.00120  -0.00053   2.12306
   A14        2.10395   0.00028  -0.00128   0.00207   0.00079   2.10473
   A15        2.08351  -0.00008   0.00128  -0.00167  -0.00039   2.08312
   A16        2.09573  -0.00020   0.00000  -0.00040  -0.00040   2.09533
   A17        2.08046  -0.00003   0.00110  -0.00213  -0.00103   2.07943
   A18        2.10205  -0.00008  -0.00070   0.00086   0.00017   2.10222
   A19        2.10068   0.00011  -0.00041   0.00127   0.00086   2.10154
   A20        2.11067   0.00035  -0.00045   0.00160   0.00115   2.11182
   A21        2.09510  -0.00022   0.00008  -0.00079  -0.00071   2.09439
   A22        2.07741  -0.00013   0.00037  -0.00081  -0.00044   2.07697
   A23        2.08335   0.00007   0.00215  -0.00229  -0.00014   2.08321
   A24        2.11069   0.00076   0.00080   0.00196   0.00276   2.11345
   A25        2.08914  -0.00083  -0.00295   0.00033  -0.00262   2.08653
    D1       -1.06303  -0.00030  -0.00221   0.00098  -0.00122  -1.06426
    D2        1.06375   0.00029   0.00247  -0.00186   0.00059   1.06434
    D3       -3.14123  -0.00000   0.00010  -0.00041  -0.00031  -3.14153
    D4        3.14131   0.00000   0.00011  -0.00023  -0.00012   3.14119
    D5       -0.00026  -0.00000   0.00005  -0.00016  -0.00010  -0.00036
    D6       -3.14155  -0.00000  -0.00009   0.00015   0.00007  -3.14148
    D7        0.00001  -0.00000  -0.00006   0.00012   0.00006   0.00006
    D8        0.00002  -0.00000  -0.00004   0.00008   0.00005   0.00007
    D9        3.14158   0.00000  -0.00001   0.00005   0.00004  -3.14157
   D10        3.14156   0.00000   0.00007  -0.00012  -0.00005   3.14150
   D11       -0.00006   0.00000   0.00002   0.00000   0.00002  -0.00004
   D12       -0.00001  -0.00000   0.00002  -0.00005  -0.00003  -0.00005
   D13        3.14155  -0.00000  -0.00004   0.00007   0.00004   3.14159
   D14       -0.00002   0.00000   0.00002  -0.00005  -0.00002  -0.00004
   D15        3.14158   0.00000   0.00002  -0.00004  -0.00002   3.14156
   D16       -3.14157  -0.00000  -0.00000  -0.00001  -0.00001  -3.14158
   D17        0.00003  -0.00000  -0.00001  -0.00001  -0.00001   0.00002
   D18       -0.00000  -0.00000   0.00001  -0.00003  -0.00002  -0.00002
   D19        3.14159  -0.00000  -0.00001   0.00002   0.00001  -3.14159
   D20        3.14158  -0.00000   0.00001  -0.00003  -0.00002   3.14157
   D21       -0.00001   0.00000  -0.00000   0.00001   0.00001  -0.00000
   D22        0.00001  -0.00000  -0.00003   0.00006   0.00003   0.00005
   D23       -3.14159   0.00000   0.00004  -0.00009  -0.00005   3.14155
   D24       -3.14158  -0.00000  -0.00001   0.00002   0.00001  -3.14157
   D25        0.00001   0.00000   0.00006  -0.00013  -0.00007  -0.00006
   D26       -0.00001   0.00000   0.00001  -0.00002  -0.00001  -0.00001
   D27       -3.14157   0.00000   0.00007  -0.00014  -0.00008   3.14153
   D28       -3.14159  -0.00000  -0.00005   0.00012   0.00007  -3.14152
   D29        0.00003  -0.00000  -0.00000   0.00000   0.00000   0.00003
         Item               Value     Threshold  Converged?
 Maximum Force            0.006645     0.000450     NO 
 RMS     Force            0.001087     0.000300     NO 
 Maximum Displacement     0.052589     0.001800     NO 
 RMS     Displacement     0.015321     0.001200     NO 
 Predicted change in Energy=-8.912552D-05
 GradGradGradGradGradGradGradGradGradGradGradGradGradGradGradGradGradGrad

                          Input orientation:                          
 ---------------------------------------------------------------------
 Center     Atomic      Atomic             Coordinates (Angstroms)
 Number     Number       Type             X           Y           Z
 ---------------------------------------------------------------------
      1          6           0        2.757656    0.408432   -0.000125
      2          8           0        1.787325   -0.612551    0.000184
      3          6           0        0.480210   -0.245566    0.000213
      4          6           0       -0.443836   -1.290177    0.000018
      5          6           0       -1.797714   -1.014210   -0.000104
      6          6           0       -2.252700    0.301838    0.000013
      7          6           0       -1.330556    1.333701    0.000278
      8          6           0        0.037151    1.073105    0.000371
      9          1           0        2.672237    1.036095   -0.891336
     10          1           0        2.672462    1.036453    0.890862
     11          1           0        3.724903   -0.086703   -0.000159
     12          1           0       -0.071516   -2.306401   -0.000080
     13          1           0       -2.506229   -1.832860   -0.000285
     14          1           0       -3.313175    0.515220   -0.000079
     15          1           0       -1.668975    2.362145    0.000334
     16          1           0        0.736398    1.896559    0.000524
 ---------------------------------------------------------------------
                    Distance matrix (angstroms):
                    1          2          3          4          5
     1  C    0.000000
     2  O    1.408527   0.000000
     3  C    2.369487   1.357654   0.000000
     4  C    3.624199   2.331792   1.394659   0.000000
     5  C    4.772348   3.607469   2.404112   1.381717   0.000000
     6  C    5.011490   4.142211   2.787194   2.409669   1.392478
     7  C    4.191610   3.675469   2.402698   2.769658   2.393935
     8  C    2.800524   2.429927   1.391113   2.411732   2.779139
     9  H    1.093396   2.072658   2.691189   3.989482   4.997850
    10  H    1.093401   2.072677   2.691244   3.989752   4.998151
    11  H    1.086612   2.007666   3.248579   4.338978   5.599961
    12  H    3.921037   2.514840   2.133411   1.082282   2.156274
    13  H    5.721177   4.463603   3.382059   2.132597   1.082673
    14  H    6.071769   5.223692   3.868923   3.390068   2.153085
    15  H    4.838600   4.560134   3.379224   3.852327   3.378809
    16  H    2.509981   2.720309   2.157390   3.398270   3.859313
                    6          7          8          9         10
     6  C    0.000000
     7  C    1.383868   0.000000
     8  C    2.416251   1.392312   0.000000
     9  H    5.058522   4.111678   2.782120   0.000000
    10  H    5.058705   4.111648   2.781938   1.782198   0.000000
    11  H    5.990217   5.251210   3.865833   1.778476   1.778491
    12  H    3.400071   3.851692   3.381253   4.415292   4.415639
    13  H    2.149701   3.377768   3.861789   5.986767   5.987148
    14  H    1.081729   2.144922   3.396457   6.073780   6.073986
    15  H    2.141401   1.082693   2.138338   4.625970   4.625859
    16  H    3.387897   2.142220   1.080289   2.298540   2.298005
                   11         12         13         14         15
    11  H    0.000000
    12  H    4.397710   0.000000
    13  H    6.471172   2.480336   0.000000
    14  H    7.063770   4.297662   2.482870   0.000000
    15  H    5.923746   4.934289   4.277741   2.472757   0.000000
    16  H    3.586710   4.279907   4.941983   4.278684   2.450018
                   16
    16  H    0.000000
 Stoichiometry    C7H8O
 Framework group  C1[X(C7H8O)]
 Deg. of freedom    42
 Full point group                 C1      NOp   1
 Largest Abelian subgroup         C1      NOp   1
 Largest concise Abelian subgroup C1      NOp   1
                         Standard orientation:                         
 ---------------------------------------------------------------------
 Center     Atomic      Atomic             Coordinates (Angstroms)
 Number     Number       Type             X           Y           Z
 ---------------------------------------------------------------------
      1          6           0        2.744454    0.325566   -0.000215
      2          8           0        1.750726   -0.672658    0.000094
      3          6           0        0.452466   -0.275484    0.000123
      4          6           0       -0.495538   -1.298403   -0.000073
      5          6           0       -1.842657   -0.991138   -0.000194
      6          6           0       -2.267026    0.335100   -0.000077
      7          6           0       -1.321219    1.345318    0.000187
      8          6           0        0.040082    1.053100    0.000281
      9          1           0        2.673602    0.955040   -0.891426
     10          1           0        2.673836    0.955393    0.890771
     11          1           0        3.699968   -0.191849   -0.000250
     12          1           0       -0.146865   -2.322981   -0.000170
     13          1           0       -2.569951   -1.793151   -0.000375
     14          1           0       -3.322272    0.572997   -0.000169
     15          1           0       -1.635716    2.381328    0.000244
     16          1           0        0.758222    1.860130    0.000434
 ---------------------------------------------------------------------
 Rotational constants (GHZ):           5.0875505           1.5835053           1.2169380
 Standard basis: def2TZVP (5D, 7F)
 There are   336 symmetry adapted cartesian basis functions of A   symmetry.
 There are   296 symmetry adapted basis functions of A   symmetry.
   296 basis functions,   472 primitive gaussians,   336 cartesian basis functions
    29 alpha electrons       29 beta electrons
       nuclear repulsion energy       347.3579222333 Hartrees.
 NAtoms=   16 NActive=   16 NUniq=   16 SFac= 1.00D+00 NAtFMM=   60 NAOKFM=F Big=F
 Integral buffers will be    131072 words long.
 Raffenetti 2 integral format.
 Two-electron integral symmetry is turned on.
 One-electron integrals computed using PRISM.
   1 Symmetry operations used in ECPInt.
 ECPInt:  NShTT=    7260 NPrTT=   21936 LenC2=    7093 LenP2D=   17297.
 LDataN:  DoStor=T MaxTD1= 6 Len=  172
 NBasis=   296 RedAO= T EigKep=  9.39D-06  NBF=   296
 NBsUse=   296 1.00D-06 EigRej= -1.00D+00 NBFU=   296
 Initial guess from the checkpoint file:  "/home/svss/projects/Project-Philicity/GS/hydrocarbon/set-1/GS/mol_14_hc/mol_14_hc.chk"
 B after Tr=     0.000000   -0.000000    0.000000
         Rot=    0.999999   -0.000011   -0.000002   -0.001401 Ang=  -0.16 deg.
 ExpMin= 9.52D-02 ExpMax= 2.70D+04 ExpMxC= 9.22D+02 IAcc=3 IRadAn=         5 AccDes= 0.00D+00
 Harris functional with IExCor= 1009 and IRadAn=       5 diagonalized for initial guess.
 HarFok:  IExCor= 1009 AccDes= 0.00D+00 IRadAn=         5 IDoV= 1 UseB2=F ITyADJ=14
 ICtDFT=  3500011 ScaDFX=  1.000000  1.000000  1.000000  1.000000
 FoFCou: FMM=F IPFlag=           0 FMFlag=      100000 FMFlg1=           0
         NFxFlg=           0 DoJE=T BraDBF=F KetDBF=T FulRan=T
         wScrn=  0.000000 ICntrl=       500 IOpCl=  0 I1Cent=   200000004 NGrid=           0
         NMat0=    1 NMatS0=      1 NMatT0=    0 NMatD0=    1 NMtDS0=    0 NMtDT0=    0
 Petite list used in FoFCou.
 Requested convergence on RMS density matrix=1.00D-08 within 128 cycles.
 Requested convergence on MAX density matrix=1.00D-06.
 Requested convergence on             energy=1.00D-06.
 No special actions if energy rises.
 Integral accuracy reduced to 1.0D-05 until final iterations.
 Initial convergence to 1.0D-05 achieved.  Increase integral accuracy.
 SCF Done:  E(RM062X) =  -346.750698966     A.U. after   10 cycles
            NFock= 10  Conv=0.35D-08     -V/T= 2.0048
   1 Symmetry operations used in ECPInt.
 ECPInt:  NShTT=    7260 NPrTT=   21936 LenC2=    7093 LenP2D=   17297.
 LDataN:  DoStor=T MaxTD1= 7 Len=  274
 Calling FoFJK, ICntrl=      2127 FMM=F ISym2X=0 I1Cent= 0 IOpClX= 0 NMat=1 NMatS=1 NMatT=0.
 ***** Axes restored to original set *****
 -------------------------------------------------------------------
 Center     Atomic                   Forces (Hartrees/Bohr)
 Number     Number              X              Y              Z
 -------------------------------------------------------------------
      1        6          -0.000235966    0.000464406    0.000003512
      2        8           0.000026852   -0.000133774    0.000002023
      3        6           0.000468234    0.000313852   -0.000003672
      4        6          -0.000672853   -0.000097025   -0.000001330
      5        6           0.000182039   -0.000068866    0.000003898
      6        6           0.000318658    0.000106558    0.000003148
      7        6           0.000002273   -0.000318025   -0.000005086
      8        6          -0.000112212   -0.000187653   -0.000002935
      9        1          -0.000029099    0.000018506   -0.000108279
     10        1          -0.000024609    0.000013954    0.000106352
     11        1          -0.000116411   -0.000284448    0.000001600
     12        1          -0.000120461    0.000291932   -0.000000655
     13        1           0.000051521    0.000128933   -0.000000321
     14        1           0.000225735   -0.000093530   -0.000000727
     15        1           0.000095732   -0.000090186    0.000002746
     16        1          -0.000059432   -0.000064632   -0.000000274
 -------------------------------------------------------------------
 Cartesian Forces:  Max     0.000672853 RMS     0.000187800

 GradGradGradGradGradGradGradGradGradGradGradGradGradGradGradGradGradGrad
 Berny optimization.
 Using GEDIIS/GDIIS optimizer.
 FormGI is forming the generalized inverse of G from B-inverse, IUseBI=4.
 Internal  Forces:  Max     0.000660382 RMS     0.000183569
 Search for a local minimum.
 Step number   3 out of a maximum of   80
 All quantities printed in internal units (Hartrees-Bohrs-Radians)
 Mixed Optimization -- En-DIIS/RFO-DIIS
 Update second derivatives using D2CorX and points    1    2    3
 DE= -7.58D-05 DEPred=-8.91D-05 R= 8.51D-01
 TightC=F SS=  1.41D+00  RLast= 1.97D-02 DXNew= 5.0454D-01 5.8954D-02
 Trust test= 8.51D-01 RLast= 1.97D-02 DXMaxT set to 3.00D-01
 ITU=  1  1  0
 Use linear search instead of GDIIS.
     Eigenvalues ---    0.01613   0.02173   0.02182   0.02204   0.02247
     Eigenvalues ---    0.02260   0.02283   0.02292   0.02306   0.02311
     Eigenvalues ---    0.02330   0.10224   0.10675   0.15876   0.16000
     Eigenvalues ---    0.16000   0.16000   0.16000   0.16000   0.16104
     Eigenvalues ---    0.16155   0.21656   0.22039   0.23394   0.24974
     Eigenvalues ---    0.34128   0.34230   0.34751   0.35584   0.35877
     Eigenvalues ---    0.35978   0.36094   0.36271   0.38646   0.43169
     Eigenvalues ---    0.44032   0.44401   0.47119   0.47640   0.48267
     Eigenvalues ---    0.49513   0.62079
 RFO step:  Lambda=-4.87527564D-06 EMin= 1.61326109D-02
 Quartic linear search produced a step of -0.09067.
 Iteration  1 RMS(Cart)=  0.00138854 RMS(Int)=  0.00000063
 Iteration  2 RMS(Cart)=  0.00000104 RMS(Int)=  0.00000017
 Iteration  3 RMS(Cart)=  0.00000000 RMS(Int)=  0.00000017
 Variable       Old X    -DE/DX   Delta X   Delta X   Delta X     New X
                                 (Linear)    (Quad)   (Total)
    R1        2.66173  -0.00011  -0.00022   0.00003  -0.00018   2.66155
    R2        2.06622   0.00010   0.00005   0.00023   0.00028   2.06650
    R3        2.06623   0.00010   0.00005   0.00022   0.00027   2.06650
    R4        2.05340   0.00002   0.00006   0.00003   0.00009   2.05349
    R5        2.56559  -0.00039  -0.00021  -0.00021  -0.00042   2.56517
    R6        2.63552   0.00022  -0.00004   0.00052   0.00048   2.63601
    R7        2.62882  -0.00044  -0.00025  -0.00044  -0.00069   2.62813
    R8        2.61107  -0.00052   0.00002  -0.00099  -0.00097   2.61010
    R9        2.04522  -0.00031  -0.00001  -0.00081  -0.00083   2.04439
   R10        2.63140  -0.00034  -0.00001  -0.00074  -0.00075   2.63066
   R11        2.04596  -0.00013  -0.00004  -0.00032  -0.00036   2.04560
   R12        2.61513  -0.00040   0.00010  -0.00093  -0.00083   2.61430
   R13        2.04417  -0.00024   0.00000  -0.00063  -0.00063   2.04354
   R14        2.63109  -0.00041  -0.00012  -0.00071  -0.00084   2.63025
   R15        2.04599  -0.00012  -0.00004  -0.00028  -0.00032   2.04567
   R16        2.04145  -0.00009   0.00018  -0.00051  -0.00032   2.04113
    A1        1.94171   0.00003  -0.00004   0.00043   0.00038   1.94209
    A2        1.94173   0.00003  -0.00005   0.00043   0.00038   1.94211
    A3        1.85764  -0.00047   0.00013  -0.00307  -0.00294   1.85470
    A4        1.90539   0.00010  -0.00008   0.00104   0.00096   1.90635
    A5        1.90826   0.00015   0.00002   0.00057   0.00059   1.90885
    A6        1.90827   0.00015   0.00002   0.00053   0.00056   1.90883
    A7        2.05705  -0.00066  -0.00140  -0.00014  -0.00154   2.05551
    A8        2.02132   0.00037   0.00051   0.00051   0.00102   2.02233
    A9        2.16865  -0.00027  -0.00069   0.00016  -0.00053   2.16812
   A10        2.09322  -0.00010   0.00018  -0.00066  -0.00049   2.09274
   A11        2.09395   0.00005  -0.00011   0.00056   0.00045   2.09440
   A12        2.06617  -0.00002   0.00006  -0.00021  -0.00015   2.06602
   A13        2.12306  -0.00004   0.00005  -0.00035  -0.00030   2.12277
   A14        2.10473  -0.00012  -0.00007  -0.00045  -0.00052   2.10421
   A15        2.08312   0.00010   0.00004   0.00048   0.00051   2.08363
   A16        2.09533   0.00002   0.00004  -0.00003   0.00001   2.09534
   A17        2.07943   0.00012   0.00009   0.00031   0.00040   2.07983
   A18        2.10222  -0.00012  -0.00002  -0.00049  -0.00050   2.10171
   A19        2.10154  -0.00001  -0.00008   0.00018   0.00010   2.10165
   A20        2.11182   0.00006  -0.00010   0.00023   0.00013   2.11195
   A21        2.09439   0.00003   0.00006   0.00018   0.00025   2.09463
   A22        2.07697  -0.00009   0.00004  -0.00041  -0.00037   2.07660
   A23        2.08321  -0.00002   0.00001   0.00002   0.00003   2.08324
   A24        2.11345   0.00001  -0.00025   0.00041   0.00016   2.11361
   A25        2.08653   0.00000   0.00024  -0.00043  -0.00019   2.08634
    D1       -1.06426  -0.00008   0.00011  -0.00080  -0.00069  -1.06495
    D2        1.06434   0.00009  -0.00005   0.00113   0.00108   1.06542
    D3       -3.14153   0.00000   0.00003   0.00015   0.00017  -3.14136
    D4        3.14119   0.00001   0.00001   0.00026   0.00027   3.14146
    D5       -0.00036   0.00000   0.00001   0.00018   0.00019  -0.00017
    D6       -3.14148  -0.00000  -0.00001  -0.00016  -0.00016   3.14154
    D7        0.00006  -0.00000  -0.00001  -0.00010  -0.00010  -0.00004
    D8        0.00007  -0.00000  -0.00000  -0.00008  -0.00008  -0.00001
    D9       -3.14157  -0.00000  -0.00000  -0.00002  -0.00002  -3.14159
   D10        3.14150   0.00000   0.00000   0.00013   0.00013  -3.14155
   D11       -0.00004   0.00000  -0.00000   0.00007   0.00007   0.00003
   D12       -0.00005   0.00000   0.00000   0.00004   0.00004  -0.00000
   D13        3.14159  -0.00000  -0.00000  -0.00001  -0.00002   3.14157
   D14       -0.00004   0.00000   0.00000   0.00005   0.00005   0.00001
   D15        3.14156   0.00000   0.00000   0.00003   0.00004  -3.14159
   D16       -3.14158  -0.00000   0.00000  -0.00001  -0.00001   3.14159
   D17        0.00002  -0.00000   0.00000  -0.00003  -0.00003  -0.00001
   D18       -0.00002   0.00000   0.00000   0.00001   0.00001  -0.00001
   D19       -3.14159  -0.00000  -0.00000  -0.00001  -0.00001   3.14158
   D20        3.14157   0.00000   0.00000   0.00003   0.00003  -3.14159
   D21       -0.00000   0.00000  -0.00000   0.00000   0.00000  -0.00000
   D22        0.00005  -0.00000  -0.00000  -0.00005  -0.00005  -0.00001
   D23        3.14155   0.00000   0.00000   0.00005   0.00005  -3.14158
   D24       -3.14157  -0.00000  -0.00000  -0.00002  -0.00002   3.14159
   D25       -0.00006   0.00000   0.00001   0.00007   0.00008   0.00002
   D26       -0.00001   0.00000   0.00000   0.00002   0.00002   0.00001
   D27        3.14153   0.00000   0.00001   0.00008   0.00008  -3.14157
   D28       -3.14152  -0.00000  -0.00001  -0.00007  -0.00008   3.14158
   D29        0.00003  -0.00000  -0.00000  -0.00002  -0.00002   0.00001
         Item               Value     Threshold  Converged?
 Maximum Force            0.000660     0.000450     NO 
 RMS     Force            0.000184     0.000300     YES
 Maximum Displacement     0.003944     0.001800     NO 
 RMS     Displacement     0.001389     0.001200     NO 
 Predicted change in Energy=-3.120492D-06
 GradGradGradGradGradGradGradGradGradGradGradGradGradGradGradGradGradGrad

                          Input orientation:                          
 ---------------------------------------------------------------------
 Center     Atomic      Atomic             Coordinates (Angstroms)
 Number     Number       Type             X           Y           Z
 ---------------------------------------------------------------------
      1          6           0        2.756088    0.409896   -0.000013
      2          8           0        1.787711   -0.612807    0.000058
      3          6           0        0.480698   -0.246289    0.000036
      4          6           0       -0.444255   -1.290439   -0.000055
      5          6           0       -1.797561   -1.014229   -0.000025
      6          6           0       -2.251398    0.301798    0.000079
      7          6           0       -1.329161    1.332986    0.000160
      8          6           0        0.038045    1.072132    0.000145
      9          1           0        2.670341    1.037433   -0.891465
     10          1           0        2.670669    1.037274    0.891580
     11          1           0        3.722834   -0.086319   -0.000225
     12          1           0       -0.072646   -2.306457   -0.000135
     13          1           0       -2.506580   -1.832192   -0.000091
     14          1           0       -3.311488    0.515400    0.000093
     15          1           0       -1.666888    2.361479    0.000253
     16          1           0        0.737231    1.895414    0.000234
 ---------------------------------------------------------------------
                    Distance matrix (angstroms):
                    1          2          3          4          5
     1  C    0.000000
     2  O    1.408430   0.000000
     3  C    2.368117   1.357431   0.000000
     4  C    3.623994   2.332564   1.394915   0.000000
     5  C    4.771148   3.607674   2.404204   1.381206   0.000000
     6  C    5.008653   4.141365   2.786530   2.408523   1.392083
     7  C    4.188240   3.674371   2.402020   2.768649   2.393495
     8  C    2.797555   2.429064   1.390746   2.411297   2.778912
     9  H    1.093545   2.072954   2.690214   3.989274   4.996612
    10  H    1.093544   2.072968   2.690420   3.989488   4.996870
    11  H    1.086659   2.005465   3.246080   4.337572   5.597837
    12  H    3.921774   2.515826   2.133187   1.081845   2.155270
    13  H    5.720370   4.464060   3.382147   2.132295   1.082484
    14  H    6.068493   5.222517   3.867925   3.388522   2.152148
    15  H    4.834396   4.558577   3.378250   3.851147   3.378236
    16  H    2.506501   2.719317   2.157012   3.397877   3.858911
                    6          7          8          9         10
     6  C    0.000000
     7  C    1.383427   0.000000
     8  C    2.415567   1.391868   0.000000
     9  H    5.055644   4.108329   2.779417   0.000000
    10  H    5.055932   4.108615   2.779673   1.783045   0.000000
    11  H    5.986826   5.247579   3.862600   1.779008   1.778996
    12  H    3.398523   3.850244   3.380402   4.415886   4.416047
    13  H    2.149193   3.377080   3.861375   5.985800   5.986052
    14  H    1.081396   2.144311   3.395486   6.070394   6.070693
    15  H    2.141013   1.082523   2.137571   4.621668   4.621946
    16  H    3.386963   2.141565   1.080118   2.295251   2.295449
                   11         12         13         14         15
    11  H    0.000000
    12  H    4.397122   0.000000
    13  H    6.469441   2.479710   0.000000
    14  H    7.060011   4.295693   2.481747   0.000000
    15  H    5.919528   4.932670   4.276910   2.472391   0.000000
    16  H    3.583447   4.279209   4.941392   4.277448   2.448878
                   16
    16  H    0.000000
 Stoichiometry    C7H8O
 Framework group  C1[X(C7H8O)]
 Deg. of freedom    42
 Full point group                 C1      NOp   1
 Largest Abelian subgroup         C1      NOp   1
 Largest concise Abelian subgroup C1      NOp   1
                         Standard orientation:                         
 ---------------------------------------------------------------------
 Center     Atomic      Atomic             Coordinates (Angstroms)
 Number     Number       Type             X           Y           Z
 ---------------------------------------------------------------------
      1          6           0        2.742831    0.325982   -0.000059
      2          8           0        1.750567   -0.673563    0.000012
      3          6           0        0.452576   -0.276275   -0.000010
      4          6           0       -0.496782   -1.298286   -0.000101
      5          6           0       -1.843186   -0.990188   -0.000071
      6          6           0       -2.265812    0.336192    0.000033
      7          6           0       -1.319475    1.345309    0.000114
      8          6           0        0.041188    1.052234    0.000099
      9          1           0        2.671931    0.955368   -0.891511
     10          1           0        2.672255    0.955202    0.891534
     11          1           0        3.697586   -0.192931   -0.000271
     12          1           0       -0.149275   -2.322799   -0.000181
[...]

 Dipole orientation:
     6          3.32984674         -2.14358550          3.47030785
     8          2.91555712         -1.87690224          0.85476213
     6          0.85405088         -0.54983148          0.10031683
     6          0.51639125         -0.33211264         -2.50489246
     6         -1.52934598          0.98470286         -3.45018673
     6         -3.26772815          2.10334619         -1.82322277
     6         -2.92253827          1.88080335          0.75861287
     6         -0.87145264          0.56050791          1.74252457
     1          3.58733688         -0.30596105          4.37984628
     1          1.76417505         -3.13957863          4.37974876
     1          5.04851629         -3.24941457          3.67063238
     1          1.88684894         -1.21400560         -3.73925071
     1         -1.77306478          1.14186092         -5.47512517
     1         -4.86783628          3.13333824         -2.56809336
     1         -4.25846836          2.74043813          2.04744761
     1         -0.64546889          0.41471568          3.76585673

 Electric dipole moment (dipole orientation):
 (Debye = 10**-18 statcoulomb cm , SI units = C m)
                  (au)            (Debye)         (10**-30 SI)
   Tot        0.499246D+00      0.126896D+01      0.423279D+01
   x          0.000000D+00      0.000000D+00      0.000000D+00
   y          0.000000D+00      0.000000D+00      0.000000D+00
   z          0.499246D+00      0.126896D+01      0.423279D+01

 Dipole polarizability, Alpha (dipole orientation).
 (esu units = cm**3 , SI units = C**2 m**2 J**-1)
 Alpha(0;0):
               (au)            (10**-24 esu)      (10**-40 SI)
   iso        0.819962D+02      0.121506D+02      0.135193D+02
   aniso      0.498127D+02      0.738148D+01      0.821300D+01
   xx         0.860672D+02      0.127538D+02      0.141906D+02
   yx        -0.225206D+02     -0.333722D+01     -0.371315D+01
   yy         0.655741D+02      0.971708D+01      0.108117D+02
   zx         0.842772D+01      0.124886D+01      0.138954D+01
   zy        -0.543055D+01     -0.804725D+00     -0.895377D+00
   zz         0.943473D+02      0.139808D+02      0.155558D+02

 ----------------------------------------------------------------------
 Unable to Open any file for archive entry.
 1\1\GINC-NODE12\Freq\RM062X\def2TZVP\C7H8O1\SVSS\20-Jun-2022\0\\#N Geo
 m=AllCheck Guess=TCheck SCRF=Check GenChk RM062X/def2TZVP Freq\\conver
 ted from /home/svss/projects/Project-Philicity/GS/hydrocarbon/set-1/GS
 /mol_14_hc/mol_14_hc_cregen_best.xyz\\0,1\C,2.7560879258,0.4098963515,
 -0.0000128452\O,1.7877109567,-0.6128069062,0.0000576661\C,0.4806977708
 ,-0.2462885501,0.000035671\C,-0.444254901,-1.2904386368,-0.000055015\C
 ,-1.7975610093,-1.0142287387,-0.0000249088\C,-2.2513983582,0.301797946
 2,0.0000790693\C,-1.3291610867,1.3329861921,0.0001601213\C,0.038045007
 1,1.0721320662,0.0001454773\H,2.6703414384,1.0374325399,-0.8914648405\
 H,2.6706693536,1.0372740829,0.8915802602\H,3.722833909,-0.0863193502,-
 0.0002246143\H,-0.0726459259,-2.3064574844,-0.000134871\H,-2.506579540
 1,-1.8321923993,-0.0000912067\H,-3.3114883153,0.5153996764,0.000092795
 3\H,-1.6668877723,2.3614789481,0.000253143\H,0.7372305474,1.8954142624
 ,0.0002340979\\Version=AS64L-G16RevC.01\State=1-A\HF=-346.7507022\RMSD
 =5.811e-09\RMSF=6.486e-05\ZeroPoint=0.134335\Thermal=0.1410909\ETot=-3
 46.6096113\HTot=-346.6086671\GTot=-346.6473042\Dipole=0.270219,0.41979
 61,-0.0000268\DipoleDeriv=0.7375639,0.1743399,0.0000052,0.4903167,0.43
 82371,0.0000058,-0.000012,0.0000044,0.3082914,-1.9165188,-0.0865772,0.
 0000029,-0.000444,-0.4832458,-0.0000002,-0.0000218,0.0000347,-0.261885
 2,1.603447,-0.1324304,0.000013,-0.3911421,0.0935221,0.0000075,0.000057
 7,-0.00001,0.0924037,-0.3391893,0.0647798,0.0000053,-0.1982092,0.03561
 33,0.0000103,-0.0000142,0.0000093,-0.1654426,0.1239496,-0.0680979,-0.0
 000063,0.0165869,0.1669549,0.000024,0.0000053,0.0000303,-0.1302663,-0.
 062639,-0.0727289,-0.0000043,-0.0379294,-0.2535605,-0.0000083,-0.00000
 03,-0.000012,-0.1647274,0.1612334,0.1092348,0.0000061,-0.0333702,0.134
 8694,0.0000227,-0.0000068,0.0000242,-0.1344898,-0.2790179,-0.050994,-0
 .0000014,0.3150979,-0.0922956,0.0000183,0.0000114,0.0000134,-0.1789353
 ,0.0172084,0.028638,-0.0560514,-0.1040629,-0.0247033,0.06479,0.0103977
 ,0.0833944,-0.0783488,0.0172005,0.0285919,0.0560081,-0.1040973,-0.0246
 854,-0.0647831,-0.01044,-0.0834086,-0.0783937,-0.1067885,0.0264008,0.0
 000268,0.0865892,0.0350567,-0.0000245,0.0000329,-0.000018,0.0885878,0.
 0571605,0.0477183,0.0000038,0.0403716,-0.01854,-0.0000136,0.0000036,-0
 .0000111,0.1457429,0.0015937,-0.0749418,-0.0000051,-0.0762456,-0.01526
 ,-0.0000119,-0.000008,-0.000015,0.13215,-0.0765621,0.0283445,0.0000023
 ,0.0286872,0.0576377,-0.000007,-0.0000005,-0.0000043,0.1470355,0.04558
 88,0.0392436,0.0000035,0.0507662,-0.0661035,-0.0000168,0.0000099,-0.00
 00185,0.1327598,0.01577,-0.0615214,-0.0000083,-0.0829149,0.0165029,-0.
 0000133,-0.0000149,-0.0000132,0.145518\Polar=107.8677917,1.3228306,87.
 0422831,-0.0001415,0.0030288,51.0785696\Quadrupole=3.5065855,0.9151988
 ,-4.4217843,2.2128252,-0.0001719,0.0005363\PG=C01 [X(C7H8O1)]\NImag=0\
 \0.57709903,-0.07109796,0.54603142,0.00000338,0.00000950,0.57573234,-0
 .15392595,-0.09731294,0.00000759,0.57547817,-0.06359671,-0.18918847,0.
 00000836,0.06374654,0.35689967,0.00000236,0.00000645,-0.06087716,-0.00
 000335,-0.00001170,0.07149289,-0.05341213,-0.00542890,0.00000145,-0.28
 467436,0.03795789,-0.00000134,0.69268050,-0.02732830,0.01177167,-0.000
 00178,0.07663738,-0.12920181,0.00000244,0.00723478,0.71418368,0.000002
 97,-0.00000039,-0.00483957,-0.00000512,0.00000052,-0.04584724,0.000005
 68,0.00003665,0.16812499,0.00013127,0.00470204,-0.00000040,-0.06364505
 ,-0.03599245,-0.00000468,-0.18479546,-0.05075227,-0.00000417,0.7234276
 3,0.00460579,-0.00032359,0.00000027,-0.00156805,0.01704184,-0.00000039
 ,-0.13012014,-0.25111747,-0.00001400,-0.04315963,0.73394120,0.00000095
 ,0.00000067,0.00271891,-0.00000260,-0.00000009,0.00726842,-0.00001030,
 -0.00001466,-0.07267555,-0.00000262,0.00004921,0.13031387,-0.00120639,
 0.00031036,-0.00000059,0.00757275,0.00036003,0.00000185,-0.05118952,-0
 .07088212,-0.00000644,-0.35601364,0.08248088,0.00000734,0.72221285,-0.
 00160763,-0.00021434,0.00000003,-0.00599150,-0.00850577,-0.00000169,-0
 .00733882,0.06890923,0.00000535,0.00842764,-0.14265463,-0.00000676,0.0
 3734592,0.71426028,-0.00000052,-0.00000008,0.00159043,-0.00000006,-0.0
 0000131,0.00483123,-0.00000081,0.00000522,0.00252532,0.00000219,-0.000
 00686,-0.05949139,0.00000195,0.00004636,0.13880949,0.00149594,0.001739
 31,-0.00000001,-0.00665148,0.00230873,0.00000014,0.00061279,-0.0200332
 7,-0.00000128,-0.00426285,0.03718173,0.00000298,-0.15208163,0.10022448
 ,0.00000764,0.76184406,-0.00016472,0.00046467,-0.00000057,0.00589092,0
 .00441056,0.00000215,-0.02180824,-0.08490888,-0.00000756,0.09371290,0.
 01623391,0.00000004,0.02499868,-0.31163717,-0.00001911,-0.00987327,0.6
 7155120,0.00000003,-0.00000002,0.00022081,0.00000055,0.00000050,-0.001
 17306,-0.00000178,-0.00000648,-0.00577441,0.00000788,0.00000064,0.0073
 2718,0.00000122,-0.00001883,-0.06226110,0.00000013,0.00004187,0.128656
 06,-0.00118185,-0.00147280,0.00000065,0.00104850,-0.00696255,-0.000002
 20,0.00197611,0.10373681,0.00000953,-0.06957740,-0.02275644,-0.0000013
 2,0.06766247,-0.05638311,-0.00000464,-0.23025911,-0.07295596,-0.000005
 12,0.68106238,-0.00209363,-0.00098499,0.00000045,-0.00112994,-0.007420
 68,-0.00000197,0.04209682,0.01888867,0.00000266,-0.02604138,-0.0112315
 4,-0.00000014,0.00409880,-0.05852430,-0.00000553,-0.14813806,-0.253442
 48,-0.00001464,-0.01189183,0.75032491,-0.00000002,-0.00000034,0.000544
 51,-0.00000018,-0.00000071,0.00690962,0.00000359,0.00000190,0.00194832
 ,-0.00000245,-0.00000061,-0.00497239,0.00000034,-0.00000547,0.00752051
 ,-0.00001132,-0.00001476,-0.06274741,-0.00000078,0.00005156,0.13792773
 ,0.00251713,0.00990397,0.00000008,-0.02828627,0.04567191,0.00000563,-0
 .14729735,0.00014580,-0.00000272,0.06447084,0.00385369,-0.00000005,-0.
 04474090,0.04098438,0.00000341,-0.04794502,-0.06848705,-0.00000575,-0.
 33007240,0.07575494,0.00000532,0.71548698,0.00028501,0.00036893,0.0000
 0021,0.01865709,-0.00807102,-0.00000143,0.07774608,-0.30982455,-0.0000
 1832,-0.04588778,-0.04638506,-0.00000488,0.03386916,-0.03542129,-0.000
 00227,-0.00976584,0.05670321,0.00000384,0.00156546,-0.13529036,-0.0000
 0725,0.04085020,0.71570086,0.00000065,0.00000002,-0.00126795,-0.000000
 65,0.00000088,0.00944680,0.00000646,-0.00001944,-0.07010705,-0.0000040
 8,-0.00000546,0.01049908,0.00000336,-0.00000242,-0.00572431,-0.0000011
 9,0.00000460,0.00788372,-0.00000256,-0.00000729,-0.05920008,0.00001134
 ,0.00005282,0.12660903,-0.05510670,0.02008652,-0.02778031,-0.00641208,
 -0.02335544,0.02207648,0.00591961,-0.00182690,0.00186757,-0.00164057,-
 0.00051169,-0.00060220,0.00092748,-0.00072816,-0.00024288,0.00018460,0
 .00108949,-0.00004219,-0.00110176,-0.00025967,-0.00054886,0.00062626,0
 .00105509,0.00002797,0.05751604,0.01634402,-0.12543668,0.11406759,-0.0
 1241481,-0.02498897,0.02030365,0.00523601,-0.00080432,0.00007479,-0.00
 098526,-0.00025541,-0.00029386,0.00027514,-0.00000653,-0.00019115,-0.0
 0034174,0.00018088,0.00005158,0.00004892,0.00006920,0.00004468,-0.0004
 5174,0.00046494,-0.00040633,-0.00954369,0.14560462,-0.02295952,0.11670
 344,-0.23007511,0.00591257,0.00180971,0.00726255,-0.00170271,0.0005035
 6,0.00058636,0.00042586,-0.00007421,-0.00022584,-0.00014055,-0.0000743
 3,-0.00001198,0.00008812,0.00001230,-0.00006722,-0.00023418,-0.0004897
 2,-0.00004793,0.00036794,0.00116661,-0.00009688,0.02279028,-0.13154988
 ,0.24188024,-0.05508856,0.02003957,0.02772046,-0.00641962,-0.02335182,
 -0.02207821,0.00591882,-0.00182710,-0.00186705,-0.00164067,-0.00051143
 ,0.00060226,0.00092714,-0.00072802,0.00024283,0.00018448,0.00108907,0.
 00004231,-0.00110118,-0.00025948,0.00054871,0.00062657,0.00105471,-0.0
 0002762,0.00104937,-0.00078341,-0.00426318,0.05749838,0.01630205,-0.12
 539648,-0.11405835,-0.01242169,-0.02498332,-0.02030368,0.00523538,-0.0
 0080524,-0.00007565,-0.00098544,-0.00025531,0.00029369,0.00027502,-0.0
 0000654,0.00019127,-0.00034184,0.00018080,-0.00005152,0.00004898,0.000
 06909,-0.00004466,-0.00045240,0.00046524,0.00040600,-0.00077914,0.0116
 4765,0.01461740,-0.00949350,0.14555825,0.02290147,-0.11669456,-0.23013
 815,-0.00591144,-0.00180683,0.00726989,0.00170178,-0.00050323,0.000586
 13,-0.00042547,0.00007430,-0.00022606,0.00014034,0.00007443,-0.0000119
 7,-0.00008811,-0.00001250,-0.00006723,0.00023428,0.00048979,-0.0000480
 5,-0.00036819,-0.00116689,-0.00009709,0.00425545,-0.01461079,-0.020783
 37,-0.02272646,0.13153912,0.24194730,-0.25850347,0.11536311,0.00004690
 ,-0.03236731,0.00411493,0.00000308,0.00107328,-0.00415459,0.00000160,-
 0.00117313,0.00058520,0.00000007,-0.00004983,-0.00039514,-0.00000016,-
 0.00007187,0.00004161,0.00000003,0.00001917,0.00013176,0.00000005,0.00
 018315,-0.00044169,-0.00000003,-0.00039153,0.00208199,-0.00027322,-0.0
 0038417,0.00207861,0.00027436,0.29162059,0.12956029,-0.11608397,-0.000
 02631,-0.03571415,0.00991253,0.00000543,-0.00227049,-0.00373667,0.0000
 0116,-0.00138294,0.00055221,-0.00000014,0.00013651,-0.00049512,-0.0000
 0016,0.00013588,0.00020211,0.00000005,-0.00014246,0.00052675,-0.000000
 07,0.00014584,-0.00132243,-0.00000032,0.01423807,-0.00682958,-0.001808
 86,0.01423526,-0.00682803,0.00180148,-0.11945346,0.12331305,0.00004845
 ,-0.00002457,-0.05189105,0.00000199,0.00000040,0.00051647,-0.00000124,
 0.00000019,0.00044899,0.00000026,0.00000004,0.00029606,-0.00000017,0.0
 0000016,-0.00002351,-0.00000008,-0.00000018,-0.00004144,0.00000020,-0.
 00000003,0.00018660,-0.00000046,-0.00000001,0.00045189,-0.02374163,0.0
 1276927,0.00163855,0.02374543,-0.01277275,0.00162724,-0.00005261,0.000
 02747,0.04726463,-0.00009596,-0.00004955,0.00000006,0.00152608,0.00082
 673,0.00000005,0.01053511,-0.01958649,-0.00000147,-0.09018991,0.091148
 10,0.00000735,-0.00429807,0.02965763,0.00000226,-0.00541369,0.00011922
 ,0.00000002,-0.00123623,-0.00055765,-0.00000004,-0.00246032,-0.0031485
 2,-0.00000033,0.00006745,0.00008937,-0.00005620,0.00006748,0.00008937,
 0.00005619,0.00000373,0.00002322,0.,0.09027727,-0.00036148,0.00012026,
 0.00000015,0.00129398,0.00176829,0.00000037,0.01191426,-0.01898117,-0.
 00000186,0.08909686,-0.31445393,-0.00002187,-0.00007850,-0.00048243,-0
 .00000019,0.00072043,0.00218581,-0.00000043,-0.00108976,0.00052457,0.0
 0000008,-0.00401180,-0.00235208,-0.00000062,0.00010955,0.00010702,-0.0
 0006580,0.00010958,0.00010705,0.00006578,-0.00004009,-0.00002194,0.,-0
 .09854645,0.33192156,0.00000008,0.00000006,-0.00062580,0.00000013,0.00
 000027,-0.00346306,0.00000084,-0.00000156,0.00557612,0.00000682,-0.000
 02182,-0.03567134,0.00000026,-0.00000049,0.00241643,0.00000013,-0.0000
 0026,0.00781888,-0.00000024,0.00000007,-0.00066134,-0.00000020,-0.0000
 0073,0.00480423,0.00015736,0.00015128,-0.00000036,-0.00015735,-0.00015
 128,-0.00000033,0.00000004,0.00000005,0.00000637,-0.00000791,0.0000240
 4,0.02485848,-0.00010219,0.00045168,-0.00000009,-0.00148246,-0.0015394
 0,0.,-0.00383854,0.00263940,0.00000021,-0.01545671,-0.02509288,-0.0000
 0210,-0.18153037,-0.14017705,-0.00001098,0.01075767,0.00872563,0.00000
 065,0.00068976,0.00261057,0.00000025,-0.00067887,0.00095923,0.00000008
 ,-0.00000647,-0.00005550,0.00002426,-0.00000653,-0.00005552,-0.0000242
 6,-0.00011949,-0.00010931,0.,0.00110482,0.00036165,0.00000003,0.189662
 17,0.00019372,0.00003531,0.00000004,-0.00005297,0.00035470,-0.00000002
 ,0.00227326,0.00108994,-0.00000055,0.00564029,0.00828781,0.00000039,-0
 .14069606,-0.22202496,-0.00001513,-0.02179453,-0.01618211,-0.00000155,
 0.00314266,-0.00490908,-0.00000098,0.00112015,0.00003622,0.00000005,-0
 .00001077,-0.00001645,-0.00000553,-0.00001076,-0.00001645,0.00000553,0
 .00001803,0.00002727,0.,-0.00043913,0.00064287,0.00000041,0.15145047,0
 .23263527,-0.00000002,-0.00000008,-0.00025149,0.00000012,0.00000009,0.
 00013067,0.00000015,-0.00000074,0.00842759,0.00000066,0.00000054,0.003
 44151,-0.00001121,-0.00001529,-0.03834966,-0.00000172,-0.00000138,0.00
 321253,0.00000008,-0.00000095,0.00688871,0.00000010,0.00000003,-0.0007
 3755,0.00005366,0.00003212,0.00000783,-0.00005370,-0.00003211,0.000007
 86,0.,0.00000002,-0.00004441,-0.00000005,0.00000039,-0.00450467,0.0000
 1195,0.00001696,0.02634443,-0.00003496,-0.00002134,0.,0.00011160,-0.00
 000364,0.00000003,0.00050282,-0.00042583,-0.00000007,0.00151178,0.0019
 0858,0.00000014,-0.00550700,-0.00067265,-0.00000008,-0.33486975,0.0555
 1169,0.00000366,-0.01574596,0.00683993,0.00000052,-0.00049769,-0.00381
 221,-0.00000034,0.00000318,-0.00000169,-0.00004692,0.00000318,-0.00000
 170,0.00004690,-0.00000992,0.00003795,0.,-0.00034240,-0.00012184,0.,0.
 00061336,0.00033766,0.00000004,0.35427349,-0.00008411,-0.00005701,0.00
 000004,0.00013898,0.00040820,0.00000010,-0.00053965,-0.00184335,-0.000
 00012,0.00112680,-0.00526374,-0.00000095,0.03035969,-0.00072104,-0.000
 00018,0.05569036,-0.07032693,-0.00000263,-0.02434815,0.00906167,0.0000
 0060,-0.00303203,-0.00302562,-0.00000083,0.00003106,0.00001787,-0.0000
 4614,0.00003108,0.00001786,0.00004612,0.00001187,0.00005072,0.,0.00141
 980,-0.00011391,-0.00000005,-0.00060353,0.00101463,0.00000035,-0.05969
 709,0.06965075,-0.00000005,0.00000008,-0.00029861,-0.00000007,0.,-0.00
 069796,0.00000003,-0.00000005,-0.00060174,0.,-0.00000110,0.00706300,0.
 00000252,-0.00000025,0.00116430,0.00000343,-0.00000276,-0.03355242,-0.
 00000161,0.00000073,0.00150789,-0.00000041,-0.00000071,0.00745163,0.00
 011517,0.00000943,0.00002186,-0.00011514,-0.00000945,0.00002191,-0.000
 00001,0.00000002,-0.00003308,0.00000014,-0.00000004,0.00030141,-0.0000
 0006,0.00000038,-0.00363666,-0.00000391,0.00000332,0.02497186,0.000507
 80,0.00039865,-0.00000003,-0.00105292,0.00177365,0.00000015,-0.0052504
 2,-0.00007683,-0.00000013,-0.00123294,-0.00050690,-0.00000007,-0.00218
 450,-0.00368796,-0.00000024,0.01131655,-0.02042842,-0.00000178,-0.0870
 5827,0.08402602,0.00000746,-0.00554912,0.03006873,0.00000276,-0.000018
 08,-0.00005418,0.00004522,-0.00001811,-0.00005418,-0.00004523,-0.00004
 853,-0.00005774,0.,0.00008562,0.00004969,0.,0.00036801,-0.00107873,-0.
 00000007,0.00078872,0.00064678,0.00000002,0.08821820,-0.00019249,-0.00
 022104,0.00000002,0.00039060,-0.00025028,-0.00000006,0.00041978,0.0021
 7826,-0.00000048,-0.00065516,0.00063774,0.00000015,-0.00428151,-0.0020
 7404,-0.00000086,0.01031965,-0.01717397,-0.00000183,0.08425425,-0.3162
 3277,-0.00002472,-0.00025846,-0.00198778,-0.00000045,-0.00000550,0.000
 03686,-0.00000320,-0.00000548,0.00003687,0.00000321,0.00002037,-0.0000
 0204,0.,0.00007193,-0.00005108,0.00000007,0.00052623,-0.00098151,-0.00
 000006,-0.00022494,0.00087743,0.00000046,-0.09065583,0.33444319,-0.000
 00004,0.,-0.00007332,0.00000003,-0.00000018,-0.00008943,0.,-0.00000021
 ,0.00756043,-0.00000019,0.00000009,-0.00099028,-0.00000017,-0.00000094
 ,0.00744130,0.00000105,-0.00000126,0.00350183,0.00000721,-0.00002524,-
 0.03750829,0.00000007,-0.00000043,0.00297560,0.00006075,-0.00001593,0.
 00001213,-0.00006072,0.00001595,0.00001212,0.,-0.00000001,0.00003727,0
 .,0.00000006,-0.00088377,0.00000005,-0.00000008,0.00004011,0.,0.000000
 40,-0.00413214,-0.00000810,0.00002731,0.02608793,-0.00309300,0.0023882
 7,0.00000086,-0.00081959,-0.00195841,-0.00000002,0.01123875,0.00649952
 ,0.00000087,0.00008681,0.00246318,0.00000016,-0.00050086,0.00106998,0.
 00000009,-0.00484069,0.00253845,0.00000013,-0.01512424,-0.02518720,-0.
 00000259,-0.17638299,-0.14305472,-0.00001582,-0.00161681,0.00055659,0.
 00002220,-0.00161657,0.00055600,-0.00002162,0.00021932,0.00061753,-0.0
 0000015,0.00036901,0.00059393,0.00000002,0.00002583,-0.00009328,0.,-0.
 00080046,-0.00115184,-0.00000004,0.00112798,0.00027656,0.00000007,0.19
 172751,-0.00076384,-0.00088570,0.00000036,-0.00014944,0.00181453,0.000
 00037,-0.02260802,-0.01579798,-0.00000220,0.00313578,-0.00475402,-0.00
 000080,0.00142801,-0.00040134,-0.00000002,0.00196797,0.00155839,-0.000
 00054,0.00520599,0.00857135,0.00000075,-0.14173741,-0.23005923,-0.0000
 2120,0.00041119,0.00020891,-0.00069534,0.00041173,0.00020855,0.0006950
 3,0.00003749,0.00073514,0.00000001,-0.00111756,-0.00092090,-0.00000007
 ,-0.00009165,0.00000654,0.00000009,0.00034712,0.00025248,-0.00000005,-
 0.00036276,0.00076417,0.00000046,0.15388541,0.23869912,-0.00000018,-0.
 00000019,-0.00046880,0.00000046,0.00000008,-0.00298065,-0.00000180,-0.
 00000179,0.00406128,0.00000039,-0.00000063,0.00532482,-0.00000006,0.00
 000015,-0.00042508,0.00000008,-0.00000064,0.00706328,0.00000069,0.0000
 0025,0.00175160,-0.00001611,-0.00002059,-0.03289106,0.00155339,-0.0004
 3645,-0.00010083,-0.00155257,0.00043603,-0.00010021,-0.00000011,0.0000
 0020,-0.00044057,-0.00000008,-0.00000005,0.00002876,-0.00000001,0.0000
 0008,-0.00097680,0.00000003,-0.00000003,0.00044873,0.00000002,0.000000
 44,-0.00399150,0.00001585,0.00002314,0.02369704\\-0.00016786,-0.000095
 76,0.00000169,0.00021923,0.00004271,0.00000283,-0.00016182,-0.00002843
 ,-0.00000442,0.00013373,0.00001533,-0.00000072,-0.00008266,0.00010032,
 0.00000139,-0.00000818,-0.00015554,0.00000047,0.00011037,0.00004629,-0
 .00000054,-0.00006005,0.00006252,0.00000030,0.00002529,0.00003346,-0.0
 0001467,0.00002923,0.00003229,0.00001370,-0.00003048,-0.00001394,0.000
 00015,-0.00001323,0.00000502,-0.00000007,0.00000684,-0.00001361,-0.000
 00006,0.00000986,0.00000378,-0.00000031,-0.00001454,-0.00001571,0.0000
 0039,0.00000427,-0.00001873,-0.00000013\\\@
 The archive entry for this job was punched.


 YOU WILL NEVER "FIND" TIME FOR ANYTHING.
 IF YOU WANT TIME, YOU MUST MAKE IT.

                        -- CHARLES BIXTON
 Job cpu time:       0 days  0 hours 58 minutes 10.7 seconds.
 Elapsed time:       0 days  0 hours  7 minutes 21.0 seconds.
 File lengths (MBytes):  RWF=    185 Int=      0 D2E=      0 Chk=      9 Scr=      2
 Normal termination of Gaussian 16 at Mon Jun 20 17:38:13 2022.
