 Entering Gaussian System, Link 0=/opt/apps/Gaussian/G16C/g16/g16
 Input=/home/svss/projects/Project-Philicity/GS/hydrocarbon/set-1/GS/mol_21_hc/mol_21_hc.com
 Output=/home/svss/projects/Project-Philicity/GS/hydrocarbon/set-1/GS/mol_21_hc/mol_21_hc.log
 Initial command:
 /opt/apps/Gaussian/G16C/g16/l1.exe "/home/svss/projects/Project-Philicity/GS/hydrocarbon/set-1/Gau-206856.inp" -scrdir="/home/svss/projects/Project-Philicity/GS/hydrocarbon/set-1/"
 Entering Link 1 = /opt/apps/Gaussian/G16C/g16/l1.exe PID=    206857.
  
 Copyright (c) 1988-2019, Gaussian, Inc.  All Rights Reserved.
  
 This is part of the Gaussian(R) 16 program.  It is based on
 the Gaussian(R) 09 system (copyright 2009, Gaussian, Inc.),
 the Gaussian(R) 03 system (copyright 2003, Gaussian, Inc.),
 the Gaussian(R) 98 system (copyright 1998, Gaussian, Inc.),
 the Gaussian(R) 94 system (copyright 1995, Gaussian, Inc.),
 the Gaussian 92(TM) system (copyright 1992, Gaussian, Inc.),
 the Gaussian 90(TM) system (copyright 1990, Gaussian, Inc.),
 the Gaussian 88(TM) system (copyright 1988, Gaussian, Inc.),
 the Gaussian 86(TM) system (copyright 1986, Carnegie Mellon
 University), and the Gaussian 82(TM) system (copyright 1983,
 Carnegie Mellon University). Gaussian is a federally registered
 trademark of Gaussian, Inc.
  
 This software contains proprietary and confidential information,
 including trade secrets, belonging to Gaussian, Inc.
  
 This software is provided under written license and may be
 used, copied, transmitted, or stored only in accord with that
 written license.
  
 The following legend is applicable only to US Government
 contracts under FAR:
  
                    RESTRICTED RIGHTS LEGEND
  
 Use, reproduction and disclosure by the US Government is
 subject to restrictions as set forth in subparagraphs (a)
 and (c) of the Commercial Computer Software - Restricted
 Rights clause in FAR 52.227-19.
  
 Gaussian, Inc.
 340 Quinnipiac St., Bldg. 40, Wallingford CT 06492
  
  
 ---------------------------------------------------------------
 Warning -- This program may not be used in any manner that
 competes with the business of Gaussian, Inc. or will provide
 assistance to any competitor of Gaussian, Inc.  The licensee
 of this program is prohibited from giving any competitor of
 Gaussian, Inc. access to this program.  By using this program,
 the user acknowledges that Gaussian, Inc. is engaged in the
 business of creating and licensing software in the field of
 computational chemistry and represents and warrants to the
 licensee that it is not a competitor of Gaussian, Inc. and that
 it will not use this program in any manner prohibited above.
 ---------------------------------------------------------------
  

 Cite this work as:
 Gaussian 16, Revision C.01,
 M. J. Frisch, G. W. Trucks, H. B. Schlegel, G. E. Scuseria, 
 M. A. Robb, J. R. Cheeseman, G. Scalmani, V. Barone, 
 G. A. Petersson, H. Nakatsuji, X. Li, M. Caricato, A. V. Marenich, 
 J. Bloino, B. G. Janesko, R. Gomperts, B. Mennucci, H. P. Hratchian, 
 J. V. Ortiz, A. F. Izmaylov, J. L. Sonnenberg, D. Williams-Young, 
 F. Ding, F. Lipparini, F. Egidi, J. Goings, B. Peng, A. Petrone, 
 T. Henderson, D. Ranasinghe, V. G. Zakrzewski, J. Gao, N. Rega, 
 G. Zheng, W. Liang, M. Hada, M. Ehara, K. Toyota, R. Fukuda, 
 J. Hasegawa, M. Ishida, T. Nakajima, Y. Honda, O. Kitao, H. Nakai, 
 T. Vreven, K. Throssell, J. A. Montgomery, Jr., J. E. Peralta, 
 F. Ogliaro, M. J. Bearpark, J. J. Heyd, E. N. Brothers, K. N. Kudin, 
 V. N. Staroverov, T. A. Keith, R. Kobayashi, J. Normand, 
 K. Raghavachari, A. P. Rendell, J. C. Burant, S. S. Iyengar, 
 J. Tomasi, M. Cossi, J. M. Millam, M. Klene, C. Adamo, R. Cammi, 
 J. W. Ochterski, R. L. Martin, K. Morokuma, O. Farkas, 
 J. B. Foresman, and D. J. Fox, Gaussian, Inc., Wallingford CT, 2019.
 
 ******************************************
 Gaussian 16:  AS64L-G16RevC.01  3-Jul-2019
                20-Jun-2022 
 ******************************************
 %nproc=8
 Will use up to    8 processors via shared memory.
 %mem=96GB
 %chk=/home/svss/projects/Project-Philicity/GS/hydrocarbon/set-1/GS/mol_21_hc/mol
 _21_hc.chk
 -------------------------
 # opt freq M062X/def2tzvp
 -------------------------
 1/18=20,19=15,26=3,38=1/1,3;
 2/9=110,12=2,17=6,18=5,40=1/2;
 3/5=44,7=101,11=2,25=1,30=1,71=1,74=-55/1,2,3;
 4//1;
 5/5=2,38=5/2;
 6/7=2,8=2,9=2,10=2,28=1/1;
 7//1,2,3,16;
 1/18=20,19=15,26=3/3(2);
 2/9=110/2;
 99//99;
 2/9=110/2;
 3/5=44,7=101,11=2,25=1,30=1,71=1,74=-55/1,2,3;
 4/5=5,16=3,69=1/1;
 5/5=2,38=5/2;
 7//1,2,3,16;
 1/18=20,19=15,26=3/3(-5);
 2/9=110/2;
 6/7=2,8=2,9=2,10=2,19=2,28=1/1;
 99/9=1/99;
 ----------------------------------------------------------------------
 converted from /home/svss/projects/Project-Philicity/GS/hydrocarbon/se
 t-1/GS/mol_21_hc/mol_21_hc_cregen_best.xyz
 ----------------------------------------------------------------------
 Symbolic Z-matrix:
 Charge =  0 Multiplicity = 1
 N                     3.10775  -0.00005  -0.00041 
 C                     1.96135   0.00009   0.00017 
 C                     0.54692   0.00008   0.00031 
 C                    -0.14794   1.20983   0.00021 
 C                    -1.52968   1.2021   -0.00008 
 C                    -2.22017  -0.00007  -0.00024 
 C                    -1.52953  -1.20219  -0.0001 
 C                    -0.14783  -1.20978   0.0002 
 H                     0.40041   2.14037   0.00034 
 H                    -2.07091   2.13645  -0.00017 
 H                    -3.29996  -0.00015  -0.00048 
 H                    -2.07072  -2.13655  -0.00013 
 H                     0.40066  -2.14026   0.00042 
 

 GradGradGradGradGradGradGradGradGradGradGradGradGradGradGradGradGradGrad
 Berny optimization.
 Initialization pass.
                           ----------------------------
                           !    Initial Parameters    !
                           ! (Angstroms and Degrees)  !
 --------------------------                            --------------------------
 ! Name  Definition              Value          Derivative Info.                !
 --------------------------------------------------------------------------------
 ! R1    R(1,2)                  1.1464         estimate D2E/DX2                !
 ! R2    R(2,3)                  1.4144         estimate D2E/DX2                !
 ! R3    R(3,4)                  1.3951         estimate D2E/DX2                !
 ! R4    R(3,8)                  1.3951         estimate D2E/DX2                !
 ! R5    R(4,5)                  1.3818         estimate D2E/DX2                !
 ! R6    R(4,9)                  1.0801         estimate D2E/DX2                !
 ! R7    R(5,6)                  1.3864         estimate D2E/DX2                !
 ! R8    R(5,10)                 1.0798         estimate D2E/DX2                !
 ! R9    R(6,7)                  1.3864         estimate D2E/DX2                !
 ! R10   R(6,11)                 1.0798         estimate D2E/DX2                !
 ! R11   R(7,8)                  1.3817         estimate D2E/DX2                !
 ! R12   R(7,12)                 1.0798         estimate D2E/DX2                !
 ! R13   R(8,13)                 1.0801         estimate D2E/DX2                !
 ! A1    A(2,3,4)              119.8719         estimate D2E/DX2                !
 ! A2    A(2,3,8)              119.8666         estimate D2E/DX2                !
 ! A3    A(4,3,8)              120.2615         estimate D2E/DX2                !
 ! A4    A(3,4,5)              119.5518         estimate D2E/DX2                !
 ! A5    A(3,4,9)              119.6176         estimate D2E/DX2                !
 ! A6    A(5,4,9)              120.8306         estimate D2E/DX2                !
 ! A7    A(4,5,6)              120.1923         estimate D2E/DX2                !
 ! A8    A(4,5,10)             119.7614         estimate D2E/DX2                !
 ! A9    A(6,5,10)             120.0463         estimate D2E/DX2                !
 ! A10   A(5,6,7)              120.2501         estimate D2E/DX2                !
 ! A11   A(5,6,11)             119.876          estimate D2E/DX2                !
 ! A12   A(7,6,11)             119.8739         estimate D2E/DX2                !
 ! A13   A(6,7,8)              120.1929         estimate D2E/DX2                !
 ! A14   A(6,7,12)             120.042          estimate D2E/DX2                !
 ! A15   A(8,7,12)             119.7651         estimate D2E/DX2                !
 ! A16   A(3,8,7)              119.5514         estimate D2E/DX2                !
 ! A17   A(3,8,13)             119.6158         estimate D2E/DX2                !
 ! A18   A(7,8,13)             120.8328         estimate D2E/DX2                !
 ! A19   L(1,2,3,13,-1)        179.9926         estimate D2E/DX2                !
 ! A20   L(1,2,3,13,-2)        180.0289         estimate D2E/DX2                !
 ! D1    D(2,3,4,5)            179.9796         estimate D2E/DX2                !
 ! D2    D(2,3,4,9)             -0.0192         estimate D2E/DX2                !
 ! D3    D(8,3,4,5)             -0.0039         estimate D2E/DX2                !
 ! D4    D(8,3,4,9)            179.9974         estimate D2E/DX2                !
 ! D5    D(2,3,8,7)           -179.9791         estimate D2E/DX2                !
 ! D6    D(2,3,8,13)             0.0251         estimate D2E/DX2                !
 ! D7    D(4,3,8,7)              0.0043         estimate D2E/DX2                !
 ! D8    D(4,3,8,13)          -179.9914         estimate D2E/DX2                !
 ! D9    D(3,4,5,6)              0.0014         estimate D2E/DX2                !
 ! D10   D(3,4,5,10)          -179.9993         estimate D2E/DX2                !
 ! D11   D(9,4,5,6)           -179.9998         estimate D2E/DX2                !
 ! D12   D(9,4,5,10)            -0.0005         estimate D2E/DX2                !
 ! D13   D(4,5,6,7)              0.0005         estimate D2E/DX2                !
 ! D14   D(4,5,6,11)          -179.9992         estimate D2E/DX2                !
 ! D15   D(10,5,6,7)          -179.9988         estimate D2E/DX2                !
 ! D16   D(10,5,6,11)            0.0015         estimate D2E/DX2                !
 ! D17   D(5,6,7,8)              0.0            estimate D2E/DX2                !
 ! D18   D(5,6,7,12)           179.9942         estimate D2E/DX2                !
 ! D19   D(11,6,7,8)           179.9997         estimate D2E/DX2                !
 ! D20   D(11,6,7,12)           -0.0062         estimate D2E/DX2                !
 ! D21   D(6,7,8,3)             -0.0024         estimate D2E/DX2                !
 ! D22   D(6,7,8,13)           179.9933         estimate D2E/DX2                !
 ! D23   D(12,7,8,3)          -179.9966         estimate D2E/DX2                !
 ! D24   D(12,7,8,13)           -0.0009         estimate D2E/DX2                !
 --------------------------------------------------------------------------------
 Trust Radius=3.00D-01 FncErr=1.00D-07 GrdErr=1.00D-06 EigMax=2.50D+02 EigMin=1.00D-04
 Number of steps in this run=     67 maximum allowed number of steps=    100.
 GradGradGradGradGradGradGradGradGradGradGradGradGradGradGradGradGradGrad

                          Input orientation:                          
 ---------------------------------------------------------------------
 Center     Atomic      Atomic             Coordinates (Angstroms)
 Number     Number       Type             X           Y           Z
 ---------------------------------------------------------------------
      1          7           0        3.107750   -0.000050   -0.000410
      2          6           0        1.961350    0.000090    0.000170
      3          6           0        0.546920    0.000080    0.000310
      4          6           0       -0.147940    1.209830    0.000210
      5          6           0       -1.529680    1.202100   -0.000080
      6          6           0       -2.220170   -0.000070   -0.000240
      7          6           0       -1.529530   -1.202190   -0.000100
      8          6           0       -0.147830   -1.209780    0.000200
      9          1           0        0.400410    2.140370    0.000340
     10          1           0       -2.070910    2.136450   -0.000170
     11          1           0       -3.299960   -0.000150   -0.000480
     12          1           0       -2.070720   -2.136550   -0.000130
     13          1           0        0.400660   -2.140260    0.000420
 ---------------------------------------------------------------------
                    Distance matrix (angstroms):
                    1          2          3          4          5
     1  N    0.000000
     2  C    1.146400   0.000000
     3  C    2.560830   1.414430   0.000000
     4  C    3.473230   2.431579   1.395108   0.000000
     5  C    4.790712   3.692170   2.399400   1.381762   0.000000
     6  C    5.327920   4.181520   2.767090   2.399582   1.386358
     7  C    4.790564   3.692116   2.399395   2.779682   2.404290
     8  C    3.473075   2.431548   1.395148   2.419610   2.779690
     9  H    3.451244   2.649025   2.145299   1.080089   2.146066
    10  H    5.602067   4.563240   3.378922   2.134582   1.079787
    11  H    6.407710   5.261310   3.846880   3.376282   2.139929
    12  H    5.601891   4.563203   3.378939   3.859448   3.382205
    13  H    3.450918   2.648934   2.145332   3.394711   3.859739
                    6          7          8          9         10
     6  C    0.000000
     7  C    1.386390   0.000000
     8  C    2.399582   1.381721   0.000000
     9  H    3.383626   3.859712   3.394712   0.000000
    10  H    2.141727   3.382249   3.859468   2.471323   0.000000
    11  H    1.079790   2.139935   3.376260   4.274876   2.464878
    12  H    2.141701   1.079776   2.134575   4.939487   4.273000
    13  H    3.383661   2.146068   1.080108   4.280630   4.939525
                   11         12         13
    11  H    0.000000
    12  H    2.464799   0.000000
    13  H    4.274887   2.471383   0.000000
 Stoichiometry    C7H5N
 Framework group  C1[X(C7H5N)]
 Deg. of freedom    33
 Full point group                 C1      NOp   1
 Largest Abelian subgroup         C1      NOp   1
 Largest concise Abelian subgroup C1      NOp   1
                         Standard orientation:                         
 ---------------------------------------------------------------------
 Center     Atomic      Atomic             Coordinates (Angstroms)
 Number     Number       Type             X           Y           Z
 ---------------------------------------------------------------------
      1          7           0       -3.168631    0.000044   -0.000409
      2          6           0       -2.022231   -0.000095    0.000171
      3          6           0       -0.607801   -0.000083    0.000311
      4          6           0        0.087061   -1.209832    0.000211
      5          6           0        1.468801   -1.202101   -0.000079
      6          6           0        2.159289    0.000070   -0.000239
      7          6           0        1.468648    1.202189   -0.000099
      8          6           0        0.086948    1.209778    0.000201
      9          1           0       -0.461288   -2.140373    0.000341
     10          1           0        2.010032   -2.136450   -0.000169
     11          1           0        3.239079    0.000151   -0.000479
     12          1           0        2.009837    2.136550   -0.000129
     13          1           0       -0.461543    2.140257    0.000421
 ---------------------------------------------------------------------
 Rotational constants (GHZ):           5.7269966           1.5755442           1.2356161
 Standard basis: def2TZVP (5D, 7F)
 There are   318 symmetry adapted cartesian basis functions of A   symmetry.
 There are   278 symmetry adapted basis functions of A   symmetry.
   278 basis functions,   448 primitive gaussians,   318 cartesian basis functions
    27 alpha electrons       27 beta electrons
       nuclear repulsion energy       301.8744087193 Hartrees.
 NAtoms=   13 NActive=   13 NUniq=   13 SFac= 1.00D+00 NAtFMM=   60 NAOKFM=F Big=F
 Integral buffers will be    131072 words long.
 Raffenetti 2 integral format.
 Two-electron integral symmetry is turned on.
 One-electron integrals computed using PRISM.
   1 Symmetry operations used in ECPInt.
 ECPInt:  NShTT=    5886 NPrTT=   18336 LenC2=    5754 LenP2D=   14531.
 LDataN:  DoStor=T MaxTD1= 6 Len=  172
 NBasis=   278 RedAO= T EigKep=  8.56D-06  NBF=   278
 NBsUse=   278 1.00D-06 EigRej= -1.00D+00 NBFU=   278
 ExpMin= 9.52D-02 ExpMax= 1.97D+04 ExpMxC= 6.73D+02 IAcc=3 IRadAn=         5 AccDes= 0.00D+00
 Harris functional with IExCor= 1009 and IRadAn=       5 diagonalized for initial guess.
 HarFok:  IExCor= 1009 AccDes= 0.00D+00 IRadAn=         5 IDoV= 1 UseB2=F ITyADJ=14
 ICtDFT=  3500011 ScaDFX=  1.000000  1.000000  1.000000  1.000000
 FoFCou: FMM=F IPFlag=           0 FMFlag=      100000 FMFlg1=           0
         NFxFlg=           0 DoJE=T BraDBF=F KetDBF=T FulRan=T
         wScrn=  0.000000 ICntrl=       500 IOpCl=  0 I1Cent=   200000004 NGrid=           0
         NMat0=    1 NMatS0=      1 NMatT0=    0 NMatD0=    1 NMtDS0=    0 NMtDT0=    0
 Petite list used in FoFCou.
 Requested convergence on RMS density matrix=1.00D-08 within 128 cycles.
 Requested convergence on MAX density matrix=1.00D-06.
 Requested convergence on             energy=1.00D-06.
 No special actions if energy rises.
 Integral accuracy reduced to 1.0D-05 until final iterations.
 Initial convergence to 1.0D-05 achieved.  Increase integral accuracy.
 SCF Done:  E(RM062X) =  -324.474207353     A.U. after   14 cycles
            NFock= 14  Conv=0.55D-08     -V/T= 2.0045

 **********************************************************************

            Population analysis using the SCF Density.

 **********************************************************************

 Orbital symmetries:
       Occupied  (A) (A) (A) (A) (A) (A) (A) (A) (A) (A) (A) (A)
                 (A) (A) (A) (A) (A) (A) (A) (A) (A) (A) (A) (A)
                 (A) (A) (A)
       Virtual   (A) (A) (A) (A) (A) (A) (A) (A) (A) (A) (A) (A)
                 (A) (A) (A) (A) (A) (A) (A) (A) (A) (A) (A) (A)
                 (A) (A) (A) (A) (A) (A) (A) (A) (A) (A) (A) (A)
                 (A) (A) (A) (A) (A) (A) (A) (A) (A) (A) (A) (A)
                 (A) (A) (A) (A) (A) (A) (A) (A) (A) (A) (A) (A)
                 (A) (A) (A) (A) (A) (A) (A) (A) (A) (A) (A) (A)
                 (A) (A) (A) (A) (A) (A) (A) (A) (A) (A) (A) (A)
                 (A) (A) (A) (A) (A) (A) (A) (A) (A) (A) (A) (A)
                 (A) (A) (A) (A) (A) (A) (A) (A) (A) (A) (A) (A)
                 (A) (A) (A) (A) (A) (A) (A) (A) (A) (A) (A) (A)
                 (A) (A) (A) (A) (A) (A) (A) (A) (A) (A) (A) (A)
                 (A) (A) (A) (A) (A) (A) (A) (A) (A) (A) (A) (A)
                 (A) (A) (A) (A) (A) (A) (A) (A) (A) (A) (A) (A)
                 (A) (A) (A) (A) (A) (A) (A) (A) (A) (A) (A) (A)
                 (A) (A) (A) (A) (A) (A) (A) (A) (A) (A) (A) (A)
                 (A) (A) (A) (A) (A) (A) (A) (A) (A) (A) (A) (A)
                 (A) (A) (A) (A) (A) (A) (A) (A) (A) (A) (A) (A)
                 (A) (A) (A) (A) (A) (A) (A) (A) (A) (A) (A) (A)
                 (A) (A) (A) (A) (A) (A) (A) (A) (A) (A) (A) (A)
                 (A) (A) (A) (A) (A) (A) (A) (A) (A) (A) (A) (A)
                 (A) (A) (A) (A) (A) (A) (A) (A) (A) (A) (A)
 The electronic state is 1-A.
 Alpha  occ. eigenvalues --  -14.75297 -10.59413 -10.57581 -10.57408 -10.57405
 Alpha  occ. eigenvalues --  -10.56903 -10.56675 -10.56659  -1.02671  -0.99250
 Alpha  occ. eigenvalues --   -0.89015  -0.87595  -0.74628  -0.72095  -0.65100
 Alpha  occ. eigenvalues --   -0.58563  -0.55647  -0.53267  -0.51866  -0.48933
 Alpha  occ. eigenvalues --   -0.45635  -0.44048  -0.43502  -0.42572  -0.40393
 Alpha  occ. eigenvalues --   -0.33876  -0.32784
 Alpha virt. eigenvalues --   -0.02855  -0.00305   0.06292   0.07872   0.09490
 Alpha virt. eigenvalues --    0.09517   0.11675   0.11955   0.13585   0.14304
 Alpha virt. eigenvalues --    0.16453   0.17448   0.20459   0.22555   0.22692
 Alpha virt. eigenvalues --    0.24266   0.24930   0.25548   0.26327   0.27078
 Alpha virt. eigenvalues --    0.28214   0.28855   0.32866   0.33096   0.34386
 Alpha virt. eigenvalues --    0.34896   0.36701   0.37130   0.37625   0.39503
 Alpha virt. eigenvalues --    0.42023   0.42283   0.42406   0.43233   0.44123
 Alpha virt. eigenvalues --    0.44224   0.48940   0.49713   0.50554   0.50870
 Alpha virt. eigenvalues --    0.51278   0.52157   0.52676   0.59302   0.59476
 Alpha virt. eigenvalues --    0.60439   0.60555   0.64029   0.67513   0.68450
 Alpha virt. eigenvalues --    0.69825   0.71887   0.72700   0.74467   0.74662
 Alpha virt. eigenvalues --    0.76544   0.77155   0.78987   0.82027   0.84453
 Alpha virt. eigenvalues --    0.89463   0.89632   0.90162   0.91039   0.92339
 Alpha virt. eigenvalues --    0.96560   1.01183   1.02884   1.06570   1.06941
 Alpha virt. eigenvalues --    1.07456   1.10905   1.14376   1.17143   1.17635
 Alpha virt. eigenvalues --    1.20803   1.21281   1.21494   1.23701   1.24966
 Alpha virt. eigenvalues --    1.26310   1.27883   1.34001   1.34748   1.34953
 Alpha virt. eigenvalues --    1.36611   1.38085   1.41406   1.44356   1.46075
 Alpha virt. eigenvalues --    1.49117   1.49808   1.50236   1.52195   1.55839
 Alpha virt. eigenvalues --    1.57092   1.58709   1.61239   1.62015   1.62550
 Alpha virt. eigenvalues --    1.66028   1.69094   1.72042   1.73181   1.73197
 Alpha virt. eigenvalues --    1.73445   1.76935   1.86708   1.87865   1.90678
 Alpha virt. eigenvalues --    1.92172   1.92435   1.96122   2.00017   2.02095
 Alpha virt. eigenvalues --    2.04937   2.05934   2.10676   2.13751   2.15960
 Alpha virt. eigenvalues --    2.19731   2.23193   2.24051   2.28034   2.31128
 Alpha virt. eigenvalues --    2.31824   2.33792   2.38369   2.42705   2.48038
 Alpha virt. eigenvalues --    2.50701   2.52046   2.53492   2.55208   2.56397
 Alpha virt. eigenvalues --    2.57694   2.62463   2.64871   2.65400   2.66150
 Alpha virt. eigenvalues --    2.66493   2.66734   2.66940   2.71022   2.73227
 Alpha virt. eigenvalues --    2.74004   2.75122   2.77524   2.77531   2.80742
 Alpha virt. eigenvalues --    2.81638   2.82196   2.83891   2.84877   2.86995
 Alpha virt. eigenvalues --    2.94053   2.95922   2.97478   2.97578   3.01115
 Alpha virt. eigenvalues --    3.01850   3.03340   3.04186   3.06221   3.11734
 Alpha virt. eigenvalues --    3.11911   3.13006   3.13184   3.14868   3.15609
 Alpha virt. eigenvalues --    3.15633   3.21105   3.21328   3.23279   3.24763
 Alpha virt. eigenvalues --    3.28246   3.31472   3.31939   3.33969   3.34248
 Alpha virt. eigenvalues --    3.37664   3.38092   3.38537   3.39864   3.41385
 Alpha virt. eigenvalues --    3.42742   3.45464   3.51586   3.52049   3.52890
 Alpha virt. eigenvalues --    3.56312   3.59603   3.63061   3.68977   3.71609
 Alpha virt. eigenvalues --    3.73954   3.75646   3.78833   3.90775   3.93027
 Alpha virt. eigenvalues --    3.95642   3.98095   3.98573   4.00103   4.04538
 Alpha virt. eigenvalues --    4.06356   4.12358   4.12865   4.12902   4.13732
 Alpha virt. eigenvalues --    4.16597   4.18074   4.20416   4.24321   4.25636
 Alpha virt. eigenvalues --    4.28107   4.37997   4.49532   4.53506   4.56384
 Alpha virt. eigenvalues --    4.56917   4.58019   4.60931   4.63465   4.65196
 Alpha virt. eigenvalues --    4.72900   4.78318   4.80556   4.87629   4.90448
 Alpha virt. eigenvalues --    5.02688   5.10617   5.16562   5.18055   5.18943
 Alpha virt. eigenvalues --    5.28735   5.34466   5.35932   5.61020   5.64835
 Alpha virt. eigenvalues --    5.65809   5.86245   6.17737  22.17753  22.68036
 Alpha virt. eigenvalues --   22.70603  22.80806  22.93200  23.31832  23.69931
 Alpha virt. eigenvalues --   32.22914
          Condensed to atoms (all electrons):
               1          2          3          4          5          6
     1  N    6.074556   0.930331  -0.041026   0.001063  -0.000307   0.000050
     2  C    0.930331   5.310774   0.151076  -0.060406  -0.000700  -0.002860
     3  C   -0.041026   0.151076   4.832110   0.526953  -0.065133  -0.038500
     4  C    0.001063  -0.060406   0.526953   4.937743   0.527265  -0.037329
     5  C   -0.000307  -0.000700  -0.065133   0.527265   4.883104   0.517072
     6  C    0.000050  -0.002860  -0.038500  -0.037329   0.517072   4.861872
     7  C   -0.000306  -0.000695  -0.065145  -0.040809  -0.045946   0.517030
     8  C    0.001061  -0.060413   0.526941  -0.039172  -0.040811  -0.037326
     9  H    0.001293   0.000743  -0.025964   0.403240  -0.030609   0.003309
    10  H    0.000001   0.000093   0.005190  -0.034356   0.412333  -0.030101
    11  H   -0.000001   0.000092   0.001480   0.002008  -0.028870   0.407490
    12  H    0.000001   0.000093   0.005191  -0.000036   0.003333  -0.030111
    13  H    0.001294   0.000746  -0.025969   0.005352  -0.000309   0.003309
               7          8          9         10         11         12
     1  N   -0.000306   0.001061   0.001293   0.000001  -0.000001   0.000001
     2  C   -0.000695  -0.060413   0.000743   0.000093   0.000092   0.000093
     3  C   -0.065145   0.526941  -0.025964   0.005190   0.001480   0.005191
     4  C   -0.040809  -0.039172   0.403240  -0.034356   0.002008  -0.000036
     5  C   -0.045946  -0.040811  -0.030609   0.412333  -0.028870   0.003333
     6  C    0.517030  -0.037326   0.003309  -0.030101   0.407490  -0.030111
     7  C    4.883096   0.527312  -0.000309   0.003333  -0.028876   0.412336
     8  C    0.527312   4.937712   0.005352  -0.000036   0.002007  -0.034349
     9  H   -0.000309   0.005352   0.477546  -0.004097  -0.000227   0.000058
    10  H    0.003333  -0.000036  -0.004097   0.497429  -0.003693  -0.000265
    11  H   -0.028876   0.002007  -0.000227  -0.003693   0.498712  -0.003693
    12  H    0.412336  -0.034349   0.000058  -0.000265  -0.003693   0.497431
    13  H   -0.030604   0.403237  -0.000256   0.000058  -0.000227  -0.004098
              13
     1  N    0.001294
     2  C    0.000746
     3  C   -0.025969
     4  C    0.005352
     5  C   -0.000309
     6  C    0.003309
     7  C   -0.030604
     8  C    0.403237
     9  H   -0.000256
    10  H    0.000058
    11  H   -0.000227
    12  H   -0.004098
    13  H    0.477542
 Mulliken charges:
               1
     1  N    0.031993
     2  C   -0.268874
     3  C    0.212796
     4  C   -0.191515
     5  C   -0.130423
     6  C   -0.133905
     7  C   -0.130418
     8  C   -0.191516
     9  H    0.169920
    10  H    0.154111
    11  H    0.153799
    12  H    0.154109
    13  H    0.169924
 Sum of Mulliken charges =  -0.00000
 Mulliken charges with hydrogens summed into heavy atoms:
               1
     1  N    0.031993
     2  C   -0.268874
     3  C    0.212796
     4  C   -0.021595
     5  C    0.023688
     6  C    0.019894
     7  C    0.023690
     8  C   -0.021591
 Electronic spatial extent (au):  <R**2>=            904.4013
 Charge=             -0.0000 electrons
 Dipole moment (field-independent basis, Debye):
    X=              4.6579    Y=             -0.0001    Z=              0.0009  Tot=              4.6579
 Quadrupole moment (field-independent basis, Debye-Ang):
   XX=            -56.0214   YY=            -39.3804   ZZ=            -49.0694
   XY=              0.0004   XZ=             -0.0041   YZ=              0.0003
 Traceless Quadrupole moment (field-independent basis, Debye-Ang):
   XX=             -7.8643   YY=              8.7766   ZZ=             -0.9123
   XY=              0.0004   XZ=             -0.0041   YZ=              0.0003
 Octapole moment (field-independent basis, Debye-Ang**2):
  XXX=             73.4354  YYY=             -0.0006  ZZZ=             -0.0005  XYY=              4.1739
  XXY=             -0.0003  XXZ=              0.0051  XZZ=             -2.8261  YZZ=             -0.0000
  YYZ=              0.0016  XYZ=              0.0001
 Hexadecapole moment (field-independent basis, Debye-Ang**3):
 XXXX=          -1057.1846 YYYY=           -266.1137 ZZZZ=            -55.1740 XXXY=              0.0056
 XXXZ=             -0.0400 YYYX=             -0.0011 YYYZ=              0.0017 ZZZX=              0.0036
 ZZZY=              0.0002 XXYY=           -186.5666 XXZZ=           -167.7273 YYZZ=            -65.1860
 XXYZ=              0.0006 YYXZ=             -0.0024 ZZXY=              0.0001
 N-N= 3.018744087193D+02 E-N=-1.356782549942D+03  KE= 3.230155562744D+02
   1 Symmetry operations used in ECPInt.
 ECPInt:  NShTT=    5886 NPrTT=   18336 LenC2=    5754 LenP2D=   14531.
 LDataN:  DoStor=T MaxTD1= 7 Len=  274
 Calling FoFJK, ICntrl=      2127 FMM=F ISym2X=0 I1Cent= 0 IOpClX= 0 NMat=1 NMatS=1 NMatT=0.
 ***** Axes restored to original set *****
 -------------------------------------------------------------------
 Center     Atomic                   Forces (Hartrees/Bohr)
 Number     Number              X              Y              Z
 -------------------------------------------------------------------
      1        7           0.003629313    0.000004143    0.000014509
      2        6           0.012509537   -0.000004641   -0.000017625
      3        6          -0.015444336   -0.000015673   -0.000001681
      4        6           0.001761386   -0.001033996    0.000000063
      5        6          -0.001189918    0.000931928    0.000004013
      6        6          -0.000529955   -0.000009761   -0.000004068
      7        6          -0.001219425   -0.000912718    0.000010526
      8        6           0.001796278    0.001038935    0.000006846
      9        1           0.000760397    0.000718940   -0.000002437
     10        1          -0.000587417    0.001293929   -0.000000226
     11        1          -0.001651837    0.000001200    0.000000169
     12        1          -0.000585934   -0.001304299   -0.000003380
     13        1           0.000751912   -0.000707989   -0.000006708
 -------------------------------------------------------------------
 Cartesian Forces:  Max     0.015444336 RMS     0.003322442

 GradGradGradGradGradGradGradGradGradGradGradGradGradGradGradGradGradGrad
 Berny optimization.
 FormGI is forming the generalized inverse of G from B-inverse, IUseBI=4.
 Internal  Forces:  Max     0.016138852 RMS     0.002334435
 Search for a local minimum.
 Step number   1 out of a maximum of   67
 All quantities printed in internal units (Hartrees-Bohrs-Radians)
 Mixed Optimization -- RFO/linear search
 Second derivative matrix not updated -- first step.
 ITU=  0
     Eigenvalues ---    0.01898   0.01898   0.02153   0.02184   0.02232
     Eigenvalues ---    0.02247   0.02269   0.02280   0.02287   0.02302
     Eigenvalues ---    0.02305   0.16000   0.16000   0.16000   0.16000
     Eigenvalues ---    0.16000   0.22000   0.22000   0.23483   0.25000
     Eigenvalues ---    0.35981   0.35984   0.36020   0.36020   0.36021
     Eigenvalues ---    0.42739   0.43310   0.43420   0.46930   0.47302
     Eigenvalues ---    0.48163   0.48785   1.37123
 RFO step:  Lambda=-6.96521113D-04 EMin= 1.89787448D-02
 Linear search not attempted -- first point.
 Iteration  1 RMS(Cart)=  0.00788219 RMS(Int)=  0.00000204
 Iteration  2 RMS(Cart)=  0.00000234 RMS(Int)=  0.00000065
 Iteration  3 RMS(Cart)=  0.00000000 RMS(Int)=  0.00000065
 Variable       Old X    -DE/DX   Delta X   Delta X   Delta X     New X
                                 (Linear)    (Quad)   (Total)
    R1        2.16638   0.00363   0.00000   0.00265   0.00265   2.16903
    R2        2.67289   0.01614   0.00000   0.03720   0.03720   2.71009
    R3        2.63637   0.00016   0.00000   0.00009   0.00009   2.63646
    R4        2.63645   0.00014   0.00000   0.00005   0.00005   2.63650
    R5        2.61115   0.00287   0.00000   0.00588   0.00588   2.61703
    R6        2.04107   0.00101   0.00000   0.00279   0.00279   2.04386
    R7        2.61984   0.00222   0.00000   0.00486   0.00486   2.62470
    R8        2.04050   0.00141   0.00000   0.00392   0.00392   2.04442
    R9        2.61990   0.00221   0.00000   0.00484   0.00484   2.62474
   R10        2.04051   0.00165   0.00000   0.00458   0.00458   2.04508
   R11        2.61107   0.00289   0.00000   0.00592   0.00592   2.61699
   R12        2.04048   0.00142   0.00000   0.00394   0.00394   2.04442
   R13        2.04111   0.00099   0.00000   0.00275   0.00275   2.04386
    A1        2.09216  -0.00007   0.00000   0.00018   0.00019   2.09235
    A2        2.09207  -0.00006   0.00000   0.00022   0.00022   2.09229
    A3        2.09896   0.00013   0.00000  -0.00040  -0.00041   2.09855
    A4        2.08657   0.00049   0.00000   0.00168   0.00168   2.08826
    A5        2.08772  -0.00054   0.00000  -0.00268  -0.00268   2.08504
    A6        2.10889   0.00005   0.00000   0.00100   0.00100   2.10989
    A7        2.09775  -0.00034   0.00000  -0.00105  -0.00105   2.09670
    A8        2.09023   0.00003   0.00000  -0.00037  -0.00037   2.08986
    A9        2.09520   0.00032   0.00000   0.00141   0.00141   2.09662
   A10        2.09876  -0.00042   0.00000  -0.00086  -0.00086   2.09790
   A11        2.09223   0.00021   0.00000   0.00042   0.00042   2.09265
   A12        2.09219   0.00021   0.00000   0.00044   0.00044   2.09263
   A13        2.09776  -0.00035   0.00000  -0.00106  -0.00106   2.09671
   A14        2.09513   0.00032   0.00000   0.00146   0.00146   2.09659
   A15        2.09030   0.00002   0.00000  -0.00040  -0.00040   2.08989
   A16        2.08657   0.00049   0.00000   0.00169   0.00169   2.08825
   A17        2.08769  -0.00054   0.00000  -0.00267  -0.00267   2.08501
   A18        2.10893   0.00005   0.00000   0.00099   0.00099   2.10992
   A19        3.14146   0.00001   0.00000   0.00051   0.00051   3.14197
   A20        3.14210  -0.00003   0.00000  -0.00145  -0.00145   3.14064
    D1        3.14124   0.00001   0.00000   0.00029   0.00029   3.14153
    D2       -0.00033   0.00001   0.00000   0.00026   0.00026  -0.00007
    D3       -0.00007   0.00000   0.00000   0.00001   0.00001  -0.00005
    D4        3.14155  -0.00000   0.00000  -0.00002  -0.00002   3.14153
    D5       -3.14123  -0.00001   0.00000  -0.00030  -0.00030  -3.14153
    D6        0.00044  -0.00001   0.00000  -0.00037  -0.00037   0.00007
    D7        0.00008  -0.00000   0.00000  -0.00002  -0.00002   0.00006
    D8       -3.14144  -0.00000   0.00000  -0.00009  -0.00009  -3.14153
    D9        0.00003  -0.00000   0.00000  -0.00002  -0.00002   0.00001
   D10       -3.14158  -0.00000   0.00000  -0.00000  -0.00000  -3.14158
   D11       -3.14159   0.00000   0.00000   0.00001   0.00001  -3.14158
   D12       -0.00001   0.00000   0.00000   0.00003   0.00003   0.00002
   D13        0.00001   0.00000   0.00000   0.00003   0.00003   0.00004
   D14       -3.14158   0.00000   0.00000   0.00002   0.00002  -3.14156
   D15       -3.14157   0.00000   0.00000   0.00002   0.00002  -3.14156
   D16        0.00003   0.00000   0.00000   0.00000   0.00000   0.00003
   D17       -0.00000  -0.00000   0.00000  -0.00004  -0.00004  -0.00004
   D18        3.14149   0.00000   0.00000   0.00007   0.00007   3.14156
   D19        3.14159  -0.00000   0.00000  -0.00003  -0.00003   3.14156
   D20       -0.00011   0.00000   0.00000   0.00009   0.00009  -0.00002
   D21       -0.00004   0.00000   0.00000   0.00003   0.00003  -0.00001
   D22        3.14148   0.00000   0.00000   0.00010   0.00010   3.14158
   D23       -3.14153  -0.00000   0.00000  -0.00008  -0.00008   3.14157
   D24       -0.00002  -0.00000   0.00000  -0.00001  -0.00001  -0.00003
         Item               Value     Threshold  Converged?
 Maximum Force            0.016139     0.000450     NO 
 RMS     Force            0.002334     0.000300     NO 
 Maximum Displacement     0.036818     0.001800     NO 
 RMS     Displacement     0.007882     0.001200     NO 
 Predicted change in Energy=-3.488187D-04
 GradGradGradGradGradGradGradGradGradGradGradGradGradGradGradGradGradGrad

                          Input orientation:                          
 ---------------------------------------------------------------------
 Center     Atomic      Atomic             Coordinates (Angstroms)
 Number     Number       Type             X           Y           Z
 ---------------------------------------------------------------------
      1          7           0        3.127233    0.000390    0.000665
      2          6           0        1.979434   -0.000031   -0.000149
      3          6           0        0.545316   -0.000013   -0.000070
      4          6           0       -0.149768    1.209663   -0.000051
      5          6           0       -1.534628    1.204017   -0.000053
      6          6           0       -2.226966   -0.000059   -0.000068
      7          6           0       -1.534578   -1.204128   -0.000030
      8          6           0       -0.149737   -1.209731   -0.000026
      9          1           0        0.401676    2.140089   -0.000028
     10          1           0       -2.075133    2.141181   -0.000048
     11          1           0       -3.309178   -0.000088   -0.000101
     12          1           0       -2.075080   -2.141295   -0.000015
     13          1           0        0.401759   -2.140125    0.000016
 ---------------------------------------------------------------------
                    Distance matrix (angstroms):
                    1          2          3          4          5
     1  N    0.000000
     2  C    1.147800   0.000000
     3  C    2.581917   1.434117   0.000000
     4  C    3.493005   2.448848   1.395155   0.000000
     5  C    4.814735   3.714615   2.403301   1.384872   0.000000
     6  C    5.354199   4.206399   2.772282   2.403784   1.388931
     7  C    4.814909   3.714583   2.403301   2.782820   2.408145
     8  C    3.493269   2.448824   1.395176   2.419393   2.782823
     9  H    3.465108   2.658840   2.144916   1.081565   2.150698
    10  H    5.625620   4.585226   3.384001   2.138868   1.081860
    11  H    6.436411   5.288611   3.854494   3.383100   2.144503
    12  H    5.625911   4.585203   3.384016   3.864679   3.388687
    13  H    3.465546   2.658770   2.144922   3.394887   3.864309
                    6          7          8          9         10
     6  C    0.000000
     7  C    1.388950   0.000000
     8  C    2.403786   1.384853   0.000000
     9  H    3.389688   3.864306   3.394900   0.000000
    10  H    2.146616   3.388701   3.864681   2.476809   0.000000
    11  H    1.082212   2.144508   3.383091   4.283782   2.471417
    12  H    2.146616   1.081861   2.138868   4.946166   4.282476
    13  H    3.389702   2.150696   1.081564   4.280213   4.946168
                   11         12         13
    11  H    0.000000
    12  H    2.471389   0.000000
    13  H    4.283785   2.476839   0.000000
 Stoichiometry    C7H5N
 Framework group  C1[X(C7H5N)]
 Deg. of freedom    33
 Full point group                 C1      NOp   1
 Largest Abelian subgroup         C1      NOp   1
 Largest concise Abelian subgroup C1      NOp   1
                         Standard orientation:                         
 ---------------------------------------------------------------------
 Center     Atomic      Atomic             Coordinates (Angstroms)
 Number     Number       Type             X           Y           Z
 ---------------------------------------------------------------------
      1          7           0       -3.186324   -0.000115    0.000632
      2          6           0       -2.038524    0.000212   -0.000182
      3          6           0       -0.604407    0.000077   -0.000104
      4          6           0        0.090579   -1.209655   -0.000084
      5          6           0        1.475440   -1.204123   -0.000086
      6          6           0        2.167875   -0.000103   -0.000101
      7          6           0        1.475586    1.204023   -0.000064
      8          6           0        0.090745    1.209738   -0.000060
      9          1           0       -0.460941   -2.140036   -0.000061
     10          1           0        2.015868   -2.141331   -0.000081
     11          1           0        3.250087   -0.000163   -0.000134
     12          1           0        2.016164    2.141145   -0.000049
     13          1           0       -0.460675    2.140177   -0.000017
 ---------------------------------------------------------------------
 Rotational constants (GHZ):           5.7176610           1.5591277           1.2250684
 Standard basis: def2TZVP (5D, 7F)
 There are   318 symmetry adapted cartesian basis functions of A   symmetry.
 There are   278 symmetry adapted basis functions of A   symmetry.
   278 basis functions,   448 primitive gaussians,   318 cartesian basis functions
    27 alpha electrons       27 beta electrons
       nuclear repulsion energy       300.9383098862 Hartrees.
 NAtoms=   13 NActive=   13 NUniq=   13 SFac= 1.00D+00 NAtFMM=   60 NAOKFM=F Big=F
 Integral buffers will be    131072 words long.
 Raffenetti 2 integral format.
 Two-electron integral symmetry is turned on.
 One-electron integrals computed using PRISM.
   1 Symmetry operations used in ECPInt.
 ECPInt:  NShTT=    5886 NPrTT=   18336 LenC2=    5753 LenP2D=   14523.
 LDataN:  DoStor=T MaxTD1= 6 Len=  172
 NBasis=   278 RedAO= T EigKep=  8.70D-06  NBF=   278
 NBsUse=   278 1.00D-06 EigRej= -1.00D+00 NBFU=   278
 Initial guess from the checkpoint file:  "/home/svss/projects/Project-Philicity/GS/hydrocarbon/set-1/GS/mol_21_hc/mol_21_hc.chk"
 B after Tr=    -0.000000   -0.000000    0.000000
         Rot=    1.000000   -0.000004   -0.000040    0.000028 Ang=  -0.01 deg.
 ExpMin= 9.52D-02 ExpMax= 1.97D+04 ExpMxC= 6.73D+02 IAcc=3 IRadAn=         5 AccDes= 0.00D+00
 Harris functional with IExCor= 1009 and IRadAn=       5 diagonalized for initial guess.
 HarFok:  IExCor= 1009 AccDes= 0.00D+00 IRadAn=         5 IDoV= 1 UseB2=F ITyADJ=14
 ICtDFT=  3500011 ScaDFX=  1.000000  1.000000  1.000000  1.000000
 FoFCou: FMM=F IPFlag=           0 FMFlag=      100000 FMFlg1=           0
         NFxFlg=           0 DoJE=T BraDBF=F KetDBF=T FulRan=T
         wScrn=  0.000000 ICntrl=       500 IOpCl=  0 I1Cent=   200000004 NGrid=           0
         NMat0=    1 NMatS0=      1 NMatT0=    0 NMatD0=    1 NMtDS0=    0 NMtDT0=    0
 Petite list used in FoFCou.
 Requested convergence on RMS density matrix=1.00D-08 within 128 cycles.
 Requested convergence on MAX density matrix=1.00D-06.
 Requested convergence on             energy=1.00D-06.
 No special actions if energy rises.
 Integral accuracy reduced to 1.0D-05 until final iterations.
 Initial convergence to 1.0D-05 achieved.  Increase integral accuracy.
 SCF Done:  E(RM062X) =  -324.474570846     A.U. after   11 cycles
            NFock= 11  Conv=0.44D-08     -V/T= 2.0048
   1 Symmetry operations used in ECPInt.
 ECPInt:  NShTT=    5886 NPrTT=   18336 LenC2=    5753 LenP2D=   14523.
 LDataN:  DoStor=T MaxTD1= 7 Len=  274
 Calling FoFJK, ICntrl=      2127 FMM=F ISym2X=0 I1Cent= 0 IOpClX= 0 NMat=1 NMatS=1 NMatT=0.
 ***** Axes restored to original set *****
 -------------------------------------------------------------------
 Center     Atomic                   Forces (Hartrees/Bohr)
 Number     Number              X              Y              Z
 -------------------------------------------------------------------
      1        7          -0.000495220   -0.000015919   -0.000034370
      2        6           0.001855528    0.000036392    0.000067269
      3        6          -0.003783753   -0.000030009   -0.000028608
      4        6           0.001083085   -0.000333135   -0.000002324
      5        6          -0.000138204   -0.000249270    0.000002197
      6        6           0.000356661   -0.000008349    0.000000322
      7        6          -0.000155104    0.000254944    0.000001681
      8        6           0.001090137    0.000347050   -0.000002442
      9        1          -0.000087332    0.000028546   -0.000002364
     10        1           0.000139238   -0.000058916    0.000000099
     11        1           0.000083366    0.000000622    0.000000451
     12        1           0.000140935    0.000058182    0.000000488
     13        1          -0.000089338   -0.000030139   -0.000002397
 -------------------------------------------------------------------
 Cartesian Forces:  Max     0.003783753 RMS     0.000733361

 GradGradGradGradGradGradGradGradGradGradGradGradGradGradGradGradGradGrad
 Berny optimization.
 Using GEDIIS/GDIIS optimizer.
 FormGI is forming the generalized inverse of G from B-inverse, IUseBI=4.
 Internal  Forces:  Max     0.001360312 RMS     0.000334878
 Search for a local minimum.
 Step number   2 out of a maximum of   67
 All quantities printed in internal units (Hartrees-Bohrs-Radians)
 Mixed Optimization -- En-DIIS/RFO-DIIS
 Update second derivatives using D2CorX and points    1    2
 DE= -3.63D-04 DEPred=-3.49D-04 R= 1.04D+00
 TightC=F SS=  1.41D+00  RLast= 4.01D-02 DXNew= 5.0454D-01 1.2029D-01
 Trust test= 1.04D+00 RLast= 4.01D-02 DXMaxT set to 3.00D-01
 ITU=  1  0
 Use linear search instead of GDIIS.
     Eigenvalues ---    0.01898   0.01898   0.02153   0.02184   0.02232
     Eigenvalues ---    0.02247   0.02269   0.02280   0.02287   0.02302
     Eigenvalues ---    0.02305   0.15979   0.16000   0.16000   0.16000
     Eigenvalues ---    0.16032   0.21998   0.22000   0.23396   0.25000
     Eigenvalues ---    0.35974   0.35983   0.36017   0.36021   0.36219
     Eigenvalues ---    0.37839   0.43424   0.43506   0.46931   0.48149
     Eigenvalues ---    0.48163   0.50493   1.37859
 RFO step:  Lambda=-1.76157323D-05 EMin= 1.89786904D-02
 Quartic linear search produced a step of  0.06422.
 Iteration  1 RMS(Cart)=  0.00109013 RMS(Int)=  0.00000185
 Iteration  2 RMS(Cart)=  0.00000220 RMS(Int)=  0.00000037
 Iteration  3 RMS(Cart)=  0.00000000 RMS(Int)=  0.00000037
 Variable       Old X    -DE/DX   Delta X   Delta X   Delta X     New X
                                 (Linear)    (Quad)   (Total)
    R1        2.16903  -0.00050   0.00017  -0.00049  -0.00032   2.16871
    R2        2.71009   0.00136   0.00239   0.00199   0.00438   2.71447
    R3        2.63646  -0.00103   0.00001  -0.00243  -0.00242   2.63404
    R4        2.63650  -0.00104   0.00000  -0.00244  -0.00244   2.63407
    R5        2.61703  -0.00022   0.00038  -0.00069  -0.00031   2.61672
    R6        2.04386  -0.00002   0.00018  -0.00016   0.00002   2.04388
    R7        2.62470  -0.00021   0.00031  -0.00059  -0.00028   2.62442
    R8        2.04442  -0.00012   0.00025  -0.00050  -0.00024   2.04418
    R9        2.62474  -0.00022   0.00031  -0.00061  -0.00030   2.62443
   R10        2.04508  -0.00008   0.00029  -0.00041  -0.00012   2.04497
   R11        2.61699  -0.00021   0.00038  -0.00067  -0.00029   2.61670
   R12        2.04442  -0.00012   0.00025  -0.00050  -0.00024   2.04418
   R13        2.04386  -0.00002   0.00018  -0.00016   0.00002   2.04388
    A1        2.09235  -0.00048   0.00001  -0.00197  -0.00196   2.09039
    A2        2.09229  -0.00046   0.00001  -0.00188  -0.00186   2.09042
    A3        2.09855   0.00094  -0.00003   0.00385   0.00382   2.10238
    A4        2.08826  -0.00042   0.00011  -0.00211  -0.00200   2.08626
    A5        2.08504   0.00030  -0.00017   0.00172   0.00155   2.08659
    A6        2.10989   0.00012   0.00006   0.00039   0.00045   2.11034
    A7        2.09670  -0.00009  -0.00007  -0.00018  -0.00025   2.09646
    A8        2.08986  -0.00005  -0.00002  -0.00050  -0.00053   2.08934
    A9        2.09662   0.00014   0.00009   0.00068   0.00077   2.09739
   A10        2.09790   0.00007  -0.00006   0.00072   0.00067   2.09856
   A11        2.09265  -0.00004   0.00003  -0.00037  -0.00034   2.09232
   A12        2.09263  -0.00004   0.00003  -0.00036  -0.00033   2.09230
   A13        2.09671  -0.00009  -0.00007  -0.00019  -0.00026   2.09645
   A14        2.09659   0.00014   0.00009   0.00070   0.00079   2.09738
   A15        2.08989  -0.00005  -0.00003  -0.00051  -0.00053   2.08936
   A16        2.08825  -0.00041   0.00011  -0.00210  -0.00199   2.08626
   A17        2.08501   0.00030  -0.00017   0.00173   0.00156   2.08658
   A18        2.10992   0.00011   0.00006   0.00036   0.00043   2.11034
   A19        3.14197  -0.00003   0.00003  -0.00190  -0.00187   3.14010
   A20        3.14064   0.00006  -0.00009   0.00329   0.00320   3.14384
    D1        3.14153   0.00000   0.00002   0.00019   0.00021  -3.14145
    D2       -0.00007   0.00000   0.00002   0.00015   0.00017   0.00010
    D3       -0.00005   0.00000   0.00000   0.00011   0.00011   0.00006
    D4        3.14153   0.00000  -0.00000   0.00007   0.00007  -3.14159
    D5       -3.14153  -0.00000  -0.00002  -0.00019  -0.00021   3.14145
    D6        0.00007  -0.00000  -0.00002  -0.00015  -0.00017  -0.00010
    D7        0.00006  -0.00000  -0.00000  -0.00011  -0.00011  -0.00006
    D8       -3.14153  -0.00000  -0.00001  -0.00007  -0.00007   3.14158
    D9        0.00001  -0.00000  -0.00000  -0.00004  -0.00004  -0.00003
   D10       -3.14158  -0.00000  -0.00000  -0.00004  -0.00004   3.14156
   D11       -3.14158   0.00000   0.00000   0.00000   0.00001  -3.14157
   D12        0.00002  -0.00000   0.00000   0.00000   0.00000   0.00002
   D13        0.00004  -0.00000   0.00000  -0.00003  -0.00003   0.00001
   D14       -3.14156  -0.00000   0.00000  -0.00001  -0.00001  -3.14157
   D15       -3.14156  -0.00000   0.00000  -0.00003  -0.00002  -3.14158
   D16        0.00003  -0.00000   0.00000  -0.00001  -0.00001   0.00002
   D17       -0.00004   0.00000  -0.00000   0.00003   0.00003  -0.00001
   D18        3.14156   0.00000   0.00000   0.00002   0.00002   3.14159
   D19        3.14156   0.00000  -0.00000   0.00001   0.00001   3.14157
   D20       -0.00002   0.00000   0.00001   0.00000   0.00001  -0.00001
   D21       -0.00001   0.00000   0.00000   0.00004   0.00004   0.00004
   D22        3.14158  -0.00000   0.00001  -0.00000   0.00000   3.14158
   D23        3.14157   0.00000  -0.00001   0.00005   0.00005  -3.14157
   D24       -0.00003   0.00000  -0.00000   0.00001   0.00001  -0.00002
         Item               Value     Threshold  Converged?
 Maximum Force            0.001360     0.000450     NO 
 RMS     Force            0.000335     0.000300     NO 
 Maximum Displacement     0.005465     0.001800     NO 
 RMS     Displacement     0.001090     0.001200     YES
 Predicted change in Energy=-9.997377D-06
 GradGradGradGradGradGradGradGradGradGradGradGradGradGradGradGradGradGrad

                          Input orientation:                          
 ---------------------------------------------------------------------
 Center     Atomic      Atomic             Coordinates (Angstroms)
 Number     Number       Type             X           Y           Z
 ---------------------------------------------------------------------
      1          7           0        3.126492   -0.001079   -0.000874
      2          6           0        1.978861    0.000463    0.000831
      3          6           0        0.542425    0.000256    0.000360
      4          6           0       -0.149846    1.210069    0.000175
      5          6           0       -1.534540    1.204150   -0.000103
      6          6           0       -2.226269   -0.000105   -0.000237
      7          6           0       -1.534230   -1.204190   -0.000078
      8          6           0       -0.149542   -1.209745    0.000199
      9          1           0        0.401838    2.140366    0.000299
     10          1           0       -2.074672    2.141379   -0.000216
     11          1           0       -3.308420   -0.000248   -0.000474
     12          1           0       -2.074134   -2.141551   -0.000178
     13          1           0        0.402388   -2.139895    0.000336
 ---------------------------------------------------------------------
                    Distance matrix (angstroms):
                    1          2          3          4          5
     1  N    0.000000
     2  C    1.147633   0.000000
     3  C    2.584068   1.436437   0.000000
     4  C    3.493032   2.448375   1.393874   0.000000
     5  C    4.814333   3.713873   2.400654   1.384707   0.000000
     6  C    5.352761   4.205131   2.768694   2.403343   1.388783
     7  C    4.813502   3.713893   2.400663   2.783014   2.408339
     8  C    3.491887   2.448409   1.393887   2.419815   2.783004
     9  H    3.465477   2.658230   2.144722   1.081576   2.150828
    10  H    5.625144   4.584175   3.381361   2.138293   1.081731
    11  H    6.434912   5.287281   3.850845   3.382523   2.144114
    12  H    5.623890   4.584212   3.381378   3.864744   3.388934
    13  H    3.463420   2.658270   2.144728   3.395176   3.864495
                    6          7          8          9         10
     6  C    0.000000
     7  C    1.388790   0.000000
     8  C    2.403337   1.384699   0.000000
     9  H    3.389478   3.864506   3.395183   0.000000
    10  H    2.146843   3.388939   3.864733   2.476510   0.000000
    11  H    1.082151   2.144114   3.382513   4.283485   2.471578
    12  H    2.146844   1.081732   2.138298   4.946236   4.282930
    13  H    3.389475   2.150822   1.081575   4.280261   4.946224
                   11         12         13
    11  H    0.000000
    12  H    2.471566   0.000000
    13  H    4.283478   2.476523   0.000000
 Stoichiometry    C7H5N
 Framework group  C1[X(C7H5N)]
 Deg. of freedom    33
 Full point group                 C1      NOp   1
 Largest Abelian subgroup         C1      NOp   1
 Largest concise Abelian subgroup C1      NOp   1
                         Standard orientation:                         
 ---------------------------------------------------------------------
 Center     Atomic      Atomic             Coordinates (Angstroms)
 Number     Number       Type             X           Y           Z
 ---------------------------------------------------------------------
      1          7           0       -3.185870    0.000466   -0.000884
      2          6           0       -2.038239   -0.000870    0.000821
      3          6           0       -0.601802   -0.000404    0.000350
      4          6           0        0.090686   -1.210092    0.000165
      5          6           0        1.475379   -1.203923   -0.000113
      6          6           0        2.166891    0.000456   -0.000247
      7          6           0        1.474635    1.204416   -0.000088
      8          6           0        0.089946    1.209723    0.000189
      9          1           0       -0.460830   -2.140488    0.000289
     10          1           0        2.015681   -2.141055   -0.000226
     11          1           0        3.249042    0.000795   -0.000484
     12          1           0        2.014370    2.141875   -0.000188
     13          1           0       -0.462152    2.139772    0.000326
 ---------------------------------------------------------------------
 Rotational constants (GHZ):           5.7163651           1.5600599           1.2255844
 Standard basis: def2TZVP (5D, 7F)
 There are   318 symmetry adapted cartesian basis functions of A   symmetry.
 There are   278 symmetry adapted basis functions of A   symmetry.
   278 basis functions,   448 primitive gaussians,   318 cartesian basis functions
    27 alpha electrons       27 beta electrons
       nuclear repulsion energy       300.9878930505 Hartrees.
 NAtoms=   13 NActive=   13 NUniq=   13 SFac= 1.00D+00 NAtFMM=   60 NAOKFM=F Big=F
 Integral buffers will be    131072 words long.
 Raffenetti 2 integral format.
 Two-electron integral symmetry is turned on.
 One-electron integrals computed using PRISM.
   1 Symmetry operations used in ECPInt.
 ECPInt:  NShTT=    5886 NPrTT=   18336 LenC2=    5754 LenP2D=   14524.
 LDataN:  DoStor=T MaxTD1= 6 Len=  172
 NBasis=   278 RedAO= T EigKep=  8.68D-06  NBF=   278
 NBsUse=   278 1.00D-06 EigRej= -1.00D+00 NBFU=   278
 Initial guess from the checkpoint file:  "/home/svss/projects/Project-Philicity/GS/hydrocarbon/set-1/GS/mol_21_hc/mol_21_hc.chk"
 B after Tr=    -0.000000    0.000000   -0.000000
         Rot=    1.000000   -0.000000    0.000046   -0.000088 Ang=  -0.01 deg.
 Requested convergence on RMS density matrix=1.00D-08 within 128 cycles.
 Requested convergence on MAX density matrix=1.00D-06.
 Requested convergence on             energy=1.00D-06.
 No special actions if energy rises.
 SCF Done:  E(RM062X) =  -324.474581643     A.U. after    9 cycles
            NFock=  9  Conv=0.31D-08     -V/T= 2.0048
   1 Symmetry operations used in ECPInt.
 ECPInt:  NShTT=    5886 NPrTT=   18336 LenC2=    5754 LenP2D=   14524.
 LDataN:  DoStor=T MaxTD1= 7 Len=  274
 Calling FoFJK, ICntrl=      2127 FMM=F ISym2X=0 I1Cent= 0 IOpClX= 0 NMat=1 NMatS=1 NMatT=0.
 ***** Axes restored to original set *****
 -------------------------------------------------------------------
 Center     Atomic                   Forces (Hartrees/Bohr)
 Number     Number              X              Y              Z
 -------------------------------------------------------------------
      1        7          -0.000159138    0.000060257    0.000080590
      2        6           0.000215418   -0.000129522   -0.000158326
      3        6          -0.000403585    0.000067653    0.000072621
      4        6           0.000376500    0.000106051    0.000009523
      5        6          -0.000189666   -0.000059614   -0.000009091
      6        6           0.000044963   -0.000000310    0.000001330
      7        6          -0.000189479    0.000071916   -0.000009639
      8        6           0.000403457   -0.000117299    0.000009077
      9        1          -0.000055079   -0.000049505    0.000001966
     10        1          -0.000012071   -0.000034258   -0.000001401
     11        1           0.000029433    0.000000811    0.000002222
     12        1          -0.000008446    0.000033386   -0.000001104
     13        1          -0.000052307    0.000050434    0.000002234
 -------------------------------------------------------------------
 Cartesian Forces:  Max     0.000403585 RMS     0.000136165

 GradGradGradGradGradGradGradGradGradGradGradGradGradGradGradGradGradGrad
 Berny optimization.
 Using GEDIIS/GDIIS optimizer.
 FormGI is forming the generalized inverse of G from B-inverse, IUseBI=4.
 Internal  Forces:  Max     0.000163401 RMS     0.000063361
 Search for a local minimum.
 Step number   3 out of a maximum of   67
 All quantities printed in internal units (Hartrees-Bohrs-Radians)
 Mixed Optimization -- En-DIIS/RFO-DIIS
 Swapping is turned off.
 Update second derivatives using D2CorX and points    1    2    3
 DE= -1.08D-05 DEPred=-1.00D-05 R= 1.08D+00
 TightC=F SS=  1.41D+00  RLast= 9.12D-03 DXNew= 5.0454D-01 2.7358D-02
 Trust test= 1.08D+00 RLast= 9.12D-03 DXMaxT set to 3.00D-01
 ITU=  1  1  0
     Eigenvalues ---    0.01896   0.02025   0.02156   0.02185   0.02232
     Eigenvalues ---    0.02247   0.02269   0.02280   0.02287   0.02302
     Eigenvalues ---    0.02305   0.15944   0.16000   0.16000   0.16000
     Eigenvalues ---    0.16113   0.19954   0.22000   0.22010   0.25022
     Eigenvalues ---    0.35747   0.35982   0.36021   0.36023   0.36114
     Eigenvalues ---    0.37982   0.43432   0.43511   0.46930   0.48021
     Eigenvalues ---    0.48163   0.51636   1.37478
 En-DIIS/RFO-DIIS/Sim-DIIS IScMMF=       -3 using points:     3    2
 RFO step:  Lambda=-2.89865710D-06.
 DidBck=T Rises=F RFO-DIIS coefs:    0.76728    0.23272
 Iteration  1 RMS(Cart)=  0.00209228 RMS(Int)=  0.00001124
 Iteration  2 RMS(Cart)=  0.00001276 RMS(Int)=  0.00000006
 Iteration  3 RMS(Cart)=  0.00000000 RMS(Int)=  0.00000006
 Variable       Old X    -DE/DX   Delta X   Delta X   Delta X     New X
                                 (Linear)    (Quad)   (Total)
    R1        2.16871  -0.00016   0.00007  -0.00023  -0.00015   2.16856
    R2        2.71447   0.00006  -0.00102   0.00196   0.00094   2.71541
    R3        2.63404  -0.00007   0.00056  -0.00104  -0.00047   2.63357
    R4        2.63407  -0.00008   0.00057  -0.00108  -0.00051   2.63355
    R5        2.61672   0.00016   0.00007   0.00028   0.00035   2.61707
    R6        2.04388  -0.00007  -0.00000  -0.00019  -0.00019   2.04369
    R7        2.62442  -0.00007   0.00007  -0.00023  -0.00016   2.62426
    R8        2.04418  -0.00002   0.00006  -0.00014  -0.00008   2.04409
    R9        2.62443  -0.00006   0.00007  -0.00023  -0.00016   2.62427
   R10        2.04497  -0.00003   0.00003  -0.00010  -0.00008   2.04489
   R11        2.61670   0.00016   0.00007   0.00029   0.00035   2.61706
   R12        2.04418  -0.00002   0.00006  -0.00014  -0.00008   2.04409
   R13        2.04388  -0.00007  -0.00000  -0.00019  -0.00019   2.04369
    A1        2.09039  -0.00005   0.00046  -0.00095  -0.00050   2.08989
    A2        2.09042  -0.00011   0.00043  -0.00116  -0.00073   2.08969
    A3        2.10238   0.00016  -0.00089   0.00212   0.00123   2.10360
    A4        2.08626  -0.00010   0.00047  -0.00119  -0.00073   2.08553
    A5        2.08659   0.00007  -0.00036   0.00094   0.00058   2.08716
    A6        2.11034   0.00003  -0.00010   0.00025   0.00015   2.11049
    A7        2.09646   0.00000   0.00006  -0.00007  -0.00002   2.09644
    A8        2.08934   0.00003   0.00012  -0.00002   0.00011   2.08944
    A9        2.09739  -0.00003  -0.00018   0.00009  -0.00009   2.09730
   A10        2.09856   0.00004  -0.00016   0.00041   0.00026   2.09882
   A11        2.09232  -0.00002   0.00008  -0.00021  -0.00013   2.09218
   A12        2.09230  -0.00002   0.00008  -0.00020  -0.00012   2.09218
   A13        2.09645   0.00001   0.00006  -0.00004   0.00002   2.09647
   A14        2.09738  -0.00003  -0.00018   0.00010  -0.00008   2.09730
   A15        2.08936   0.00002   0.00012  -0.00007   0.00006   2.08941
   A16        2.08626  -0.00011   0.00046  -0.00122  -0.00076   2.08550
   A17        2.08658   0.00007  -0.00036   0.00094   0.00058   2.08715
   A18        2.11034   0.00003  -0.00010   0.00028   0.00018   2.11053
   A19        3.14010   0.00013   0.00043   0.00672   0.00716   3.14726
   A20        3.14384  -0.00014  -0.00074  -0.00679  -0.00753   3.13631
    D1       -3.14145  -0.00001  -0.00005  -0.00040  -0.00045   3.14129
    D2        0.00010  -0.00001  -0.00004  -0.00025  -0.00029  -0.00019
    D3        0.00006  -0.00000  -0.00003  -0.00014  -0.00016  -0.00011
    D4       -3.14159  -0.00000  -0.00002   0.00002   0.00000  -3.14159
    D5        3.14145   0.00001   0.00005   0.00040   0.00045  -3.14129
    D6       -0.00010   0.00001   0.00004   0.00025   0.00029   0.00019
    D7       -0.00006   0.00000   0.00003   0.00014   0.00016   0.00011
    D8        3.14158   0.00000   0.00002  -0.00001   0.00000   3.14158
    D9       -0.00003   0.00000   0.00001   0.00010   0.00011   0.00008
   D10        3.14156   0.00000   0.00001   0.00009   0.00010  -3.14153
   D11       -3.14157  -0.00000  -0.00000  -0.00006  -0.00006   3.14155
   D12        0.00002  -0.00000  -0.00000  -0.00007  -0.00007  -0.00005
   D13        0.00001  -0.00000   0.00001  -0.00007  -0.00006  -0.00005
   D14       -3.14157  -0.00000   0.00000  -0.00006  -0.00006   3.14156
   D15       -3.14158  -0.00000   0.00001  -0.00005  -0.00005   3.14156
   D16        0.00002  -0.00000   0.00000  -0.00004  -0.00004  -0.00002
   D17       -0.00001   0.00000  -0.00001   0.00007   0.00006   0.00005
   D18        3.14159   0.00000  -0.00001   0.00005   0.00004  -3.14156
   D19        3.14157   0.00000  -0.00000   0.00006   0.00006  -3.14156
   D20       -0.00001   0.00000  -0.00000   0.00004   0.00003   0.00002
   D21        0.00004  -0.00000  -0.00001  -0.00010  -0.00011  -0.00008
   D22        3.14158   0.00000  -0.00000   0.00005   0.00005  -3.14155
   D23       -3.14157  -0.00000  -0.00001  -0.00008  -0.00009   3.14153
   D24       -0.00002   0.00000  -0.00000   0.00007   0.00007   0.00005
         Item               Value     Threshold  Converged?
 Maximum Force            0.000163     0.000450     YES
 RMS     Force            0.000063     0.000300     YES
 Maximum Displacement     0.010801     0.001800     NO 
 RMS     Displacement     0.002095     0.001200     NO 
 Predicted change in Energy=-1.449405D-06
 GradGradGradGradGradGradGradGradGradGradGradGradGradGradGradGradGradGrad

                          Input orientation:                          
 ---------------------------------------------------------------------
 Center     Atomic      Atomic             Coordinates (Angstroms)
 Number     Number       Type             X           Y           Z
 ---------------------------------------------------------------------
      1          7           0        3.126231    0.004636    0.002849
      2          6           0        1.978702   -0.001406   -0.001392
      3          6           0        0.541768   -0.000817   -0.000619
      4          6           0       -0.149106    1.209506   -0.000378
      5          6           0       -1.533987    1.204033   -0.000002
      6          6           0       -2.226043    0.000065    0.000226
      7          6           0       -1.534723   -1.204336    0.000020
      8          6           0       -0.149851   -1.210705   -0.000356
      9          1           0        0.402964    2.139454   -0.000595
     10          1           0       -2.073894    2.141342    0.000125
     11          1           0       -3.308153    0.000398    0.000554
     12          1           0       -2.075209   -2.141311    0.000165
     13          1           0        0.401652   -2.140990   -0.000556
 ---------------------------------------------------------------------
                    Distance matrix (angstroms):
                    1          2          3          4          5
     1  N    0.000000
     2  C    1.147552   0.000000
     3  C    2.584470   1.436934   0.000000
     4  C    3.489921   2.448239   1.393624   0.000000
     5  C    4.812088   3.713767   2.400088   1.384892   0.000000
     6  C    5.352276   4.204746   2.767812   2.403417   1.388697
     7  C    4.815196   3.713651   2.400058   2.783266   2.408369
     8  C    3.494249   2.448090   1.393617   2.420211   2.783306
     9  H    3.460295   2.658239   2.144767   1.081474   2.150998
    10  H    5.621994   4.584202   3.380907   2.138487   1.081688
    11  H    6.434385   5.286855   3.849921   3.382531   2.143922
    12  H    5.626728   4.584037   3.380871   3.864951   3.388842
    13  H    3.468004   2.657989   2.144755   3.395461   3.864696
                    6          7          8          9         10
     6  C    0.000000
     7  C    1.388706   0.000000
     8  C    2.403442   1.384886   0.000000
     9  H    3.389493   3.864656   3.395464   0.000000
    10  H    2.146676   3.388845   3.864992   2.476859   0.000000
    11  H    1.082110   2.143930   3.382549   4.283451   2.471242
    12  H    2.146682   1.081687   2.138464   4.946342   4.282654
    13  H    3.389527   2.151016   1.081474   4.280444   4.946382
                   11         12         13
    11  H    0.000000
    12  H    2.471248   0.000000
    13  H    4.283479   2.476861   0.000000
 Stoichiometry    C7H5N
 Framework group  C1[X(C7H5N)]
 Deg. of freedom    33
 Full point group                 C1      NOp   1
 Largest Abelian subgroup         C1      NOp   1
 Largest concise Abelian subgroup C1      NOp   1
                         Standard orientation:                         
 ---------------------------------------------------------------------
 Center     Atomic      Atomic             Coordinates (Angstroms)
 Number     Number       Type             X           Y           Z
 ---------------------------------------------------------------------
      1          7           0       -3.185650   -0.001769    0.002046
      2          6           0       -2.038116    0.003303   -0.001937
      3          6           0       -0.601183    0.001499   -0.000840
      4          6           0        0.088667   -1.209407   -0.000434
      5          6           0        1.473552   -1.205105    0.000253
      6          6           0        2.166626   -0.001723    0.000628
      7          6           0        1.476325    1.203262    0.000258
      8          6           0        0.091459    1.210802   -0.000430
      9          1           0       -0.464189   -2.138889   -0.000768
     10          1           0        2.012666   -2.142871    0.000509
     11          1           0        3.248735   -0.002971    0.001200
     12          1           0        2.017603    2.139780    0.000518
     13          1           0       -0.459257    2.141553   -0.000762
 ---------------------------------------------------------------------
 Rotational constants (GHZ):           5.7155746           1.5603235           1.2257114
 Standard basis: def2TZVP (5D, 7F)
 There are   318 symmetry adapted cartesian basis functions of A   symmetry.
 There are   278 symmetry adapted basis functions of A   symmetry.
   278 basis functions,   448 primitive gaussians,   318 cartesian basis functions
    27 alpha electrons       27 beta electrons
       nuclear repulsion energy       300.9952027360 Hartrees.
 NAtoms=   13 NActive=   13 NUniq=   13 SFac= 1.00D+00 NAtFMM=   60 NAOKFM=F Big=F
 Integral buffers will be    131072 words long.
 Raffenetti 2 integral format.
 Two-electron integral symmetry is turned on.
 One-electron integrals computed using PRISM.
   1 Symmetry operations used in ECPInt.
 ECPInt:  NShTT=    5886 NPrTT=   18336 LenC2=    5754 LenP2D=   14524.
 LDataN:  DoStor=T MaxTD1= 6 Len=  172
 NBasis=   278 RedAO= T EigKep=  8.69D-06  NBF=   278
 NBsUse=   278 1.00D-06 EigRej= -1.00D+00 NBFU=   278
 Initial guess from the checkpoint file:  "/home/svss/projects/Project-Philicity/GS/hydrocarbon/set-1/GS/mol_21_hc/mol_21_hc.chk"
 B after Tr=     0.000000   -0.000000    0.000000
         Rot=    1.000000    0.000004   -0.000003    0.000346 Ang=   0.04 deg.
 Requested convergence on RMS density matrix=1.00D-08 within 128 cycles.
 Requested convergence on MAX density matrix=1.00D-06.
 Requested convergence on             energy=1.00D-06.
 No special actions if energy rises.
 SCF Done:  E(RM062X) =  -324.474579829     A.U. after    9 cycles
            NFock=  9  Conv=0.45D-08     -V/T= 2.0048
   1 Symmetry operations used in ECPInt.
 ECPInt:  NShTT=    5886 NPrTT=   18336 LenC2=    5754 LenP2D=   14524.
 LDataN:  DoStor=T MaxTD1= 7 Len=  274
 Calling FoFJK, ICntrl=      2127 FMM=F ISym2X=0 I1Cent= 0 IOpClX= 0 NMat=1 NMatS=1 NMatT=0.
 ***** Axes restored to original set *****
 -------------------------------------------------------------------
 Center     Atomic                   Forces (Hartrees/Bohr)
 Number     Number              X              Y              Z
 -------------------------------------------------------------------
      1        7           0.000028838   -0.000229404   -0.000187168
      2        6          -0.000222276    0.000497855    0.000367291
      3        6           0.000393339   -0.000279230   -0.000169693
      4        6          -0.000006391    0.000108229   -0.000020755
      5        6          -0.000004373   -0.000000481    0.000021539
      6        6          -0.000013519   -0.000014693   -0.000004994
      7        6          -0.000032684   -0.000031310    0.000021645
      8        6          -0.000085036   -0.000045017   -0.000020842
      9        1           0.000000813   -0.000021859   -0.000004263
     10        1          -0.000016912   -0.000001278    0.000002910
     11        1          -0.000002522   -0.000001590   -0.000004295
     12        1          -0.000027324    0.000003675    0.000002883
     13        1          -0.000011953    0.000015104   -0.000004257
 -------------------------------------------------------------------
 Cartesian Forces:  Max     0.000497855 RMS     0.000144064

 GradGradGradGradGradGradGradGradGradGradGradGradGradGradGradGradGradGrad
 Berny optimization.
 Using GEDIIS/GDIIS optimizer.
 FormGI is forming the generalized inverse of G from B-inverse, IUseBI=4.
 Internal  Forces:  Max     0.000497405 RMS     0.000090215
 Search for a local minimum.
 Step number   4 out of a maximum of   67
 All quantities printed in internal units (Hartrees-Bohrs-Radians)
 Mixed Optimization -- En-DIIS/RFO-DIIS
 Swapping is turned off.
 Update second derivatives using D2CorX and points    1    2    3    4
 DE=  1.81D-06 DEPred=-1.45D-06 R=-1.25D+00
 Trust test=-1.25D+00 RLast= 1.07D-02 DXMaxT set to 1.50D-01
 ITU= -1  1  1  0
     Eigenvalues ---    0.01862   0.02152   0.02184   0.02232   0.02247
     Eigenvalues ---    0.02269   0.02280   0.02287   0.02302   0.02305
     Eigenvalues ---    0.06343   0.13104   0.16000   0.16000   0.16007
     Eigenvalues ---    0.16138   0.16282   0.22002   0.22026   0.25503
     Eigenvalues ---    0.33157   0.35982   0.36018   0.36021   0.36069
     Eigenvalues ---    0.36133   0.43439   0.43471   0.46941   0.47092
     Eigenvalues ---    0.48168   0.53138   1.36897
 En-DIIS/RFO-DIIS/Sim-DIIS IScMMF=       -3 using points:     4    3    2
 RFO step:  Lambda=-5.02955218D-06.
 EnCoef did     2 forward-backward iterations
 DidBck=T Rises=T En-DIIS coefs:    0.44132    0.31309    0.24559
 Iteration  1 RMS(Cart)=  0.00218263 RMS(Int)=  0.00001115
 Iteration  2 RMS(Cart)=  0.00001135 RMS(Int)=  0.00000016
 Iteration  3 RMS(Cart)=  0.00000000 RMS(Int)=  0.00000016
 Variable       Old X    -DE/DX   Delta X   Delta X   Delta X     New X
                                 (Linear)    (Quad)   (Total)
    R1        2.16856   0.00003   0.00016  -0.00024  -0.00007   2.16849
    R2        2.71541  -0.00019  -0.00160   0.00261   0.00101   2.71642
    R3        2.63357   0.00009   0.00086  -0.00116  -0.00030   2.63327
    R4        2.63355   0.00013   0.00088  -0.00116  -0.00028   2.63328
    R5        2.61707   0.00004  -0.00012   0.00047   0.00035   2.61741
    R6        2.04369  -0.00002   0.00010  -0.00023  -0.00012   2.04356
    R7        2.62426   0.00002   0.00016  -0.00021  -0.00005   2.62421
    R8        2.04409   0.00001   0.00011  -0.00011  -0.00001   2.04409
    R9        2.62427  -0.00001   0.00016  -0.00024  -0.00007   2.62420
   R10        2.04489   0.00000   0.00007  -0.00007   0.00000   2.04489
   R11        2.61706   0.00005  -0.00013   0.00049   0.00037   2.61742
   R12        2.04409   0.00001   0.00011  -0.00011  -0.00000   2.04409
   R13        2.04369  -0.00002   0.00010  -0.00023  -0.00013   2.04356
    A1        2.08989  -0.00008   0.00076  -0.00134  -0.00058   2.08931
    A2        2.08969   0.00015   0.00087  -0.00112  -0.00026   2.08944
    A3        2.10360  -0.00007  -0.00162   0.00246   0.00084   2.10444
    A4        2.08553   0.00001   0.00090  -0.00142  -0.00052   2.08501
    A5        2.08716  -0.00002  -0.00070   0.00107   0.00037   2.08753
    A6        2.11049   0.00001  -0.00019   0.00035   0.00016   2.11065
    A7        2.09644   0.00003   0.00007  -0.00006   0.00001   2.09646
    A8        2.08944   0.00000   0.00007   0.00001   0.00008   2.08952
    A9        2.09730  -0.00003  -0.00014   0.00005  -0.00009   2.09721
   A10        2.09882   0.00001  -0.00031   0.00050   0.00019   2.09901
   A11        2.09218  -0.00000   0.00016  -0.00025  -0.00010   2.09209
   A12        2.09218  -0.00001   0.00015  -0.00024  -0.00010   2.09209
   A13        2.09647  -0.00001   0.00005  -0.00009  -0.00004   2.09644
   A14        2.09730  -0.00002  -0.00015   0.00007  -0.00008   2.09721
   A15        2.08941   0.00003   0.00010   0.00002   0.00012   2.08953
   A16        2.08550   0.00003   0.00091  -0.00139  -0.00048   2.08502
   A17        2.08715  -0.00001  -0.00071   0.00109   0.00038   2.08754
   A18        2.11053  -0.00002  -0.00021   0.00031   0.00010   2.11063
   A19        3.14726  -0.00050  -0.00354  -0.00532  -0.00886   3.13840
   A20        3.13631   0.00033   0.00342   0.00050   0.00392   3.14023
    D1        3.14129   0.00002   0.00020   0.00003   0.00023   3.14152
    D2       -0.00019   0.00001   0.00012   0.00004   0.00016  -0.00004
    D3       -0.00011   0.00001   0.00006   0.00001   0.00008  -0.00003
    D4       -3.14159  -0.00000  -0.00002   0.00002   0.00000  -3.14158
    D5       -3.14129  -0.00002  -0.00020  -0.00003  -0.00023  -3.14152
    D6        0.00019  -0.00001  -0.00012  -0.00003  -0.00015   0.00004
    D7        0.00011  -0.00001  -0.00006  -0.00002  -0.00008   0.00003
    D8        3.14158   0.00000   0.00002  -0.00001   0.00000   3.14159
    D9        0.00008  -0.00001  -0.00005  -0.00000  -0.00005   0.00002
   D10       -3.14153  -0.00000  -0.00004  -0.00000  -0.00004  -3.14157
   D11        3.14155   0.00000   0.00003  -0.00001   0.00002   3.14158
   D12       -0.00005   0.00000   0.00004  -0.00001   0.00003  -0.00002
   D13       -0.00005   0.00000   0.00004  -0.00001   0.00003  -0.00002
   D14        3.14156   0.00000   0.00004  -0.00002   0.00001   3.14157
   D15        3.14156   0.00000   0.00003  -0.00001   0.00002   3.14158
   D16       -0.00002   0.00000   0.00003  -0.00002   0.00000  -0.00002
   D17        0.00005  -0.00000  -0.00004   0.00001  -0.00003   0.00002
   D18       -3.14156  -0.00000  -0.00003   0.00000  -0.00003  -3.14158
   D19       -3.14156  -0.00000  -0.00004   0.00002  -0.00002  -3.14157
   D20        0.00002  -0.00000  -0.00002   0.00001  -0.00001   0.00001
   D21       -0.00008   0.00001   0.00005   0.00000   0.00006  -0.00002
   D22       -3.14155  -0.00000  -0.00003   0.00000  -0.00003  -3.14158
   D23        3.14153   0.00000   0.00004   0.00001   0.00005   3.14158
   D24        0.00005  -0.00000  -0.00004   0.00001  -0.00003   0.00002
         Item               Value     Threshold  Converged?
 Maximum Force            0.000497     0.000450     NO 
 RMS     Force            0.000090     0.000300     YES
 Maximum Displacement     0.013321     0.001800     NO 
 RMS     Displacement     0.002183     0.001200     NO 
 Predicted change in Energy=-2.278759D-06
 GradGradGradGradGradGradGradGradGradGradGradGradGradGradGradGradGradGrad

                          Input orientation:                          
 ---------------------------------------------------------------------
 Center     Atomic      Atomic             Coordinates (Angstroms)
 Number     Number       Type             X           Y           Z
 ---------------------------------------------------------------------
      1          7           0        3.126308   -0.002413    0.000918
      2          6           0        1.978800    0.000916   -0.000238
      3          6           0        0.541333    0.000499   -0.000111
      4          6           0       -0.149609    1.210602   -0.000089
      5          6           0       -1.534670    1.204235   -0.000056
      6          6           0       -2.225955   -0.000148   -0.000018
      7          6           0       -1.534125   -1.204211   -0.000033
      8          6           0       -0.149057   -1.209922   -0.000067
      9          1           0        0.401975    2.140762   -0.000132
     10          1           0       -2.075253    2.141152   -0.000057
     11          1           0       -3.308066   -0.000394    0.000028
     12          1           0       -2.074277   -2.141376   -0.000013
     13          1           0        0.402946   -2.139833   -0.000091
 ---------------------------------------------------------------------
                    Distance matrix (angstroms):
                    1          2          3          4          5
     1  N    0.000000
     2  C    1.147514   0.000000
     3  C    2.584978   1.437468   0.000000
     4  C    3.493285   2.448156   1.393467   0.000000
     5  C    4.814636   3.713819   2.399743   1.385076   0.000000
     6  C    5.352264   4.204755   2.767288   2.403565   1.388673
     7  C    4.812896   3.713890   2.399761   2.783560   2.408446
     8  C    3.490860   2.448246   1.393470   2.420524   2.783537
     9  H    3.466293   2.658066   2.144795   1.081408   2.151204
    10  H    5.625932   4.584316   3.380668   2.138697   1.081685
[...]
 ! R10   R(6,11)                 1.0821         -DE/DX =    0.0                 !
 ! R11   R(7,8)                  1.3849         -DE/DX =    0.0                 !
 ! R12   R(7,12)                 1.0817         -DE/DX =    0.0                 !
 ! R13   R(8,13)                 1.0814         -DE/DX =    0.0                 !
 ! A1    A(2,3,4)              119.7425         -DE/DX =    0.0                 !
 ! A2    A(2,3,8)              119.7418         -DE/DX =    0.0                 !
 ! A3    A(4,3,8)              120.5157         -DE/DX =    0.0                 !
 ! A4    A(3,4,5)              119.4952         -DE/DX =    0.0                 !
 ! A5    A(3,4,9)              119.5827         -DE/DX =    0.0                 !
 ! A6    A(5,4,9)              120.9221         -DE/DX =    0.0                 !
 ! A7    A(4,5,6)              120.1198         -DE/DX =    0.0                 !
 ! A8    A(4,5,10)             119.7232         -DE/DX =    0.0                 !
 ! A9    A(6,5,10)             120.157          -DE/DX =    0.0                 !
 ! A10   A(5,6,7)              120.2543         -DE/DX =    0.0                 !
 ! A11   A(5,6,11)             119.8729         -DE/DX =    0.0                 !
 ! A12   A(7,6,11)             119.8728         -DE/DX =    0.0                 !
 ! A13   A(6,7,8)              120.1199         -DE/DX =    0.0                 !
 ! A14   A(6,7,12)             120.1569         -DE/DX =    0.0                 !
 ! A15   A(8,7,12)             119.7232         -DE/DX =    0.0                 !
 ! A16   A(3,8,7)              119.4951         -DE/DX =    0.0                 !
 ! A17   A(3,8,13)             119.5826         -DE/DX =    0.0                 !
 ! A18   A(7,8,13)             120.9223         -DE/DX =    0.0                 !
 ! A19   L(1,2,3,13,-1)        180.0183         -DE/DX =    0.0                 !
 ! A20   L(1,2,3,13,-2)        180.051          -DE/DX =   -0.0001              !
 ! D1    D(2,3,4,5)           -179.9971         -DE/DX =    0.0                 !
 ! D2    D(2,3,4,9)              0.002          -DE/DX =    0.0                 !
 ! D3    D(8,3,4,5)              0.001          -DE/DX =    0.0                 !
 ! D4    D(8,3,4,9)            180.0            -DE/DX =    0.0                 !
 ! D5    D(2,3,8,7)            179.9971         -DE/DX =    0.0                 !
 ! D6    D(2,3,8,13)            -0.0019         -DE/DX =    0.0                 !
 ! D7    D(4,3,8,7)             -0.001          -DE/DX =    0.0                 !
 ! D8    D(4,3,8,13)          -179.9999         -DE/DX =    0.0                 !
 ! D9    D(3,4,5,6)             -0.0007         -DE/DX =    0.0                 !
 ! D10   D(3,4,5,10)          -180.0005         -DE/DX =    0.0                 !
 ! D11   D(9,4,5,6)           -179.9997         -DE/DX =    0.0                 !
 ! D12   D(9,4,5,10)             0.0004         -DE/DX =    0.0                 !
 ! D13   D(4,5,6,7)              0.0004         -DE/DX =    0.0                 !
 ! D14   D(4,5,6,11)           180.0001         -DE/DX =    0.0                 !
 ! D15   D(10,5,6,7)           180.0003         -DE/DX =    0.0                 !
 ! D16   D(10,5,6,11)           -0.0001         -DE/DX =    0.0                 !
 ! D17   D(5,6,7,8)             -0.0004         -DE/DX =    0.0                 !
 ! D18   D(5,6,7,12)          -180.0004         -DE/DX =    0.0                 !
 ! D19   D(11,6,7,8)          -180.0001         -DE/DX =    0.0                 !
 ! D20   D(11,6,7,12)           -0.0001         -DE/DX =    0.0                 !
 ! D21   D(6,7,8,3)              0.0007         -DE/DX =    0.0                 !
 ! D22   D(6,7,8,13)           179.9996         -DE/DX =    0.0                 !
 ! D23   D(12,7,8,3)           180.0006         -DE/DX =    0.0                 !
 ! D24   D(12,7,8,13)           -0.0004         -DE/DX =    0.0                 !
 --------------------------------------------------------------------------------
 GradGradGradGradGradGradGradGradGradGradGradGradGradGradGradGradGradGrad


 ----------------------------------------------------------------------

 Electric dipole moment (input orientation):
 (Debye = 10**-18 statcoulomb cm , SI units = C m)
                  (au)            (Debye)         (10**-30 SI)
   Tot        0.183315D+01      0.465941D+01      0.155421D+02
   x         -0.183315D+01     -0.465941D+01     -0.155421D+02
   y         -0.228327D-03     -0.580349D-03     -0.193584D-02
   z          0.232880D-03      0.591922D-03      0.197444D-02

 Dipole polarizability, Alpha (input orientation).
 (esu units = cm**3 , SI units = C**2 m**2 J**-1)
 Alpha(0;0):
               (au)            (10**-24 esu)      (10**-40 SI)
   iso        0.805003D+02      0.119289D+02      0.132727D+02
   aniso      0.614335D+02      0.910351D+01      0.101290D+02
   xx         0.115475D+03      0.171116D+02      0.190393D+02
   yx         0.445132D-02      0.659618D-03      0.733924D-03
   yy         0.814683D+02      0.120724D+02      0.134323D+02
   zx         0.321285D-03      0.476096D-04      0.529728D-04
   zy        -0.353062D-03     -0.523184D-04     -0.582120D-04
   zz         0.445575D+02      0.660275D+01      0.734655D+01

 ----------------------------------------------------------------------

 Dipole orientation:
     7          0.00035026         -0.00003242         -5.90763916
     6          0.00127163         -0.00047612         -3.73908313
     6          0.00048087         -0.00016388         -1.02427146
     6         -0.00016760          2.28682131          0.28210462
     6         -0.00081230          2.27582356          2.89925875
     6         -0.00083863          0.00040416          4.20657573
     6         -0.00020287         -2.27530027          2.89974855
     6          0.00044537         -2.28686802          0.28259980
     1         -0.00013100          4.04436331         -0.76067162
     1         -0.00130029          4.04670342          3.92019380
     1         -0.00134710          0.00062351          6.25144689
     1         -0.00021310         -4.04595781          3.92106853
     1          0.00095583         -4.04463324         -0.75980044

 Electric dipole moment (dipole orientation):
 (Debye = 10**-18 statcoulomb cm , SI units = C m)
                  (au)            (Debye)         (10**-30 SI)
   Tot        0.183315D+01      0.465941D+01      0.155421D+02
   x          0.000000D+00      0.000000D+00      0.000000D+00
   y          0.000000D+00      0.000000D+00      0.000000D+00
   z          0.183315D+01      0.465941D+01      0.155421D+02

 Dipole polarizability, Alpha (dipole orientation).
 (esu units = cm**3 , SI units = C**2 m**2 J**-1)
 Alpha(0;0):
               (au)            (10**-24 esu)      (10**-40 SI)
   iso        0.805003D+02      0.119289D+02      0.132727D+02
   aniso      0.614335D+02      0.910351D+01      0.101290D+02
   xx         0.445575D+02      0.660275D+01      0.734655D+01
   yx        -0.495047D-02     -0.733584D-03     -0.816222D-03
   yy         0.814683D+02      0.120724D+02      0.134323D+02
   zx        -0.933043D-02     -0.138263D-02     -0.153838D-02
   zy        -0.216848D-03     -0.321336D-04     -0.357535D-04
   zz         0.115475D+03      0.171116D+02      0.190393D+02

 ----------------------------------------------------------------------
 Unable to Open any file for archive entry.
 1\1\GINC-NODE12\Freq\RM062X\def2TZVP\C7H5N1\SVSS\20-Jun-2022\0\\#N Geo
 m=AllCheck Guess=TCheck SCRF=Check GenChk RM062X/def2TZVP Freq\\conver
 ted from /home/svss/projects/Project-Philicity/GS/hydrocarbon/set-1/GS
 /mol_21_hc/mol_21_hc_cregen_best.xyz\\0,1\N,3.1261879921,0.0003722015,
 -0.0002117965\C,1.978637665,-0.0000055875,0.0004215218\C,0.5420211487,
 -0.0000192398,0.0001855999\C,-0.1494340537,1.2101151237,0.0000810037\C
 ,-1.5343716703,1.204122905,-0.0000849432\C,-2.2260240601,-0.0000633311
 ,-0.0001609682\C,-1.5343308892,-1.2042281434,-0.0000623864\C,-0.149394
 6328,-1.2101770766,0.0001039465\H,0.4022635366,2.1402350105,0.00014610
 84\H,-2.074743963,2.1411648976,-0.0001578236\H,-3.3081233092,-0.000082
 0064,-0.0002925545\H,-2.0746734521,-2.1412870656,-0.0001158479\H,0.402
 3356879,-2.1402776879,0.0001881401\\Version=AS64L-G16RevC.01\State=1-A
 \HF=-324.4745822\RMSD=1.542e-09\RMSF=2.460e-05\ZeroPoint=0.1000543\The
 rmal=0.1061181\ETot=-324.3684642\HTot=-324.36752\GTot=-324.4047661\Dip
 ole=-1.8331518,-0.0002283,0.0002329\DipoleDeriv=-0.4728309,0.0001239,-
 0.0003191,0.000042,-0.3000901,-0.0000004,-0.0002304,-0.0000003,-0.3252
 132,0.4297628,-0.0001045,0.0002983,-0.0001366,0.0442209,0.0000011,0.00
 04948,0.0000009,0.1386178,0.0244686,-0.0000051,0.0000055,0.0001131,0.0
 956506,-0.0000006,-0.0001367,-0.0000002,0.0397091,0.0002977,0.1018321,
 0.0000202,-0.0420709,0.0066547,0.0000033,-0.0000658,-0.0000028,-0.0888
 219,-0.0849613,-0.1505772,0.0000085,-0.1147068,0.0240825,-0.0000152,0.
 0000255,-0.0000331,-0.1276937,0.0779271,-0.0000018,0.0000278,0.0000065
 ,0.0217925,-0.0000013,0.0000132,-0.0000008,-0.1074396,-0.084962,0.1505
 708,0.0000054,0.1147259,0.0240901,0.0000122,0.0000226,0.0000295,-0.127
 696,0.0003301,-0.1018422,0.0000223,0.042027,0.0066595,-0.0000053,-0.00
 00661,0.0000009,-0.0888281,0.0491978,-0.0460824,-0.0000139,-0.0387437,
 0.0186676,-0.0000052,-0.0000138,-0.0000042,0.1386059,0.0330682,0.04743
 83,-0.0000101,0.0533484,-0.0169046,0.0000078,-0.000002,0.0000165,0.137
 1764,-0.0545639,-0.0000026,-0.000021,-0.0000022,0.0734272,0.0000006,-0
 .0000259,0.0000004,0.1358008,0.0330739,-0.0474401,-0.0000091,-0.053353
 1,-0.0169128,-0.0000048,-0.0000006,-0.0000132,0.1371756,0.0491918,0.04
 60908,-0.0000149,0.0387503,0.0186618,0.0000076,-0.0000148,0.0000065,0.
 1386068\Polar=115.47504,0.0044513,81.4683292,0.0003213,-0.0003531,44.5
 575413\Quadrupole=-5.8619608,6.5571591,-0.6951983,-0.0015555,0.0021081
 ,-0.000073\PG=C01 [X(C7H5N1)]\NImag=0\\1.30823310,0.00040780,0.0184730
 1,-0.00067479,-0.00000020,0.02017253,-1.29253811,-0.00041092,0.0006901
 7,1.64641418,-0.00038864,-0.03916082,0.00000021,0.00040737,0.12539426,
 0.00064593,0.00000021,-0.03859659,-0.00063465,-0.00000053,0.08966874,-
 0.01824616,0.00000101,-0.00001389,-0.29208921,-0.00001169,-0.00000765,
 0.68694584,-0.00001935,0.02212846,-0.00000004,0.00000569,-0.08787193,0
 .00000027,0.00000717,0.66726377,0.00003107,-0.00000003,0.01771010,-0.0
 0004840,0.00000024,-0.06127511,0.00006257,-0.00000474,0.14684550,0.003
 66104,-0.00268630,-0.00000113,-0.03640427,0.03181565,-0.00000254,-0.16
 411901,0.04665828,-0.00001861,0.70845317,-0.00767155,-0.00224395,0.000
 00266,0.01382513,0.00670967,-0.00000128,0.11557037,-0.28231242,0.00001
 664,0.04534405,0.72858158,-0.00000006,0.00000041,0.00123508,-0.0000043
 2,0.00000425,0.00201482,-0.00001656,0.00000782,-0.06733162,0.00007632,
 0.00000091,0.14080028,-0.00201149,-0.00087177,0.00000082,0.00478348,0.
 00433957,-0.00000107,-0.03004907,0.08683664,-0.00000501,-0.34946501,-0
 .03925616,-0.00003641,0.70056850,-0.00026306,0.00096641,-0.00000110,0.
 00574855,-0.00477136,0.00000213,0.02651122,0.03960936,0.00000519,0.038
 47052,-0.13412778,0.00000437,-0.03796313,0.73752113,-0.00000188,-0.000
 00072,-0.00139281,0.00000084,0.00000169,0.00823536,-0.00000617,0.00001
 281,0.00857145,-0.00003380,-0.00000615,-0.06537434,0.00006810,-0.00001
 169,0.13924960,0.00045635,0.00000026,-0.00000123,-0.00057402,-0.000000
 18,0.00000220,-0.00051759,0.00000109,0.00000104,-0.02646422,-0.0303875
 5,-0.00000452,-0.18575316,-0.12869830,-0.00001303,0.75738628,-0.000000
 27,0.00080409,0.,-0.00000066,-0.00312965,0.00000003,0.00000190,-0.0821
 8202,0.00000071,-0.08941133,0.04226472,-0.00001155,-0.04927192,-0.2903
 7661,-0.00000214,0.00000285,0.67417593,0.00000029,0.,0.00022637,0.0000
 0003,0.00000002,-0.00124475,0.00000102,0.00000071,-0.00823873,-0.00000
 314,-0.00000427,0.00799933,-0.00001438,-0.00001307,-0.06581519,0.00007
 521,-0.00000481,0.14229431,-0.00201240,0.00087065,0.00000079,0.0047824
 3,-0.00433866,-0.00000096,-0.03004392,-0.08683851,-0.00000334,-0.06267
 012,0.03650834,-0.00000730,0.07779093,0.02902578,0.00000933,-0.1857592
 1,0.04927408,-0.00001516,0.70057002,0.00026184,0.00096660,0.00000106,-
 0.00574711,-0.00477278,-0.00000189,-0.02651469,0.03960727,-0.00000580,
 0.03440305,-0.02117878,0.00000459,-0.02902125,-0.05966781,-0.00000286,
 0.12870019,-0.29036696,0.00001707,0.03796351,0.73751967,-0.00000188,0.
 00000068,-0.00139332,0.00000095,-0.00000144,0.00823630,-0.00000564,-0.
 00001343,0.00857179,-0.00000771,0.00000578,-0.00843625,0.00000989,0.00
 000417,0.00860372,-0.00001531,0.00000618,-0.06581548,0.00006710,0.0000
 0020,0.13924970,0.00365491,0.00268972,-0.00000118,-0.03639642,-0.03182
 338,-0.00000197,-0.16411853,-0.04665197,-0.00001789,0.07381046,-0.0292
 2257,0.00000843,-0.06266779,-0.03440474,-0.00000704,-0.02646782,0.0894
 0924,-0.00000486,-0.34946848,-0.03847622,-0.00003309,0.70846521,0.0076
 7313,-0.00223995,-0.00000259,-0.01382721,0.00670584,0.00000116,-0.1155
 6669,-0.28231831,-0.00001278,0.02922688,-0.06030000,0.00000510,-0.0365
 0924,-0.02118114,-0.00000555,0.03038548,0.04226824,0.00000362,0.039248
 63,-0.13412863,0.00000752,-0.04534486,0.72857816,-0.00000020,-0.000000
 35,0.00123576,-0.00000406,-0.00000434,0.00201484,-0.00001453,-0.000003
 92,-0.06733361,0.00000790,-0.00000372,0.01146284,-0.00000661,-0.000004
 37,-0.00843665,-0.00000511,0.00001090,0.00799944,-0.00003725,-0.000003
 01,-0.06537478,0.00007758,-0.00001218,0.14080131,-0.00023466,-0.000363
 67,0.,0.00156491,0.00066397,0.00000051,0.01088660,0.01564750,0.0000010
 7,-0.13443432,-0.12800396,-0.00001180,-0.00940046,-0.02788592,-0.00000
 193,-0.00564569,0.00103639,-0.00000167,-0.00084208,0.00089491,-0.00000
 009,-0.00111479,0.00327751,-0.00000096,0.13813606,0.00051809,0.0002240
 7,-0.00000022,-0.00110674,0.00019011,-0.00000002,-0.01541131,-0.018120
 97,-0.00000184,-0.12585789,-0.27437572,-0.00001497,0.00228940,0.005206
 07,0.00000041,0.00078955,0.00149845,0.00000015,0.00071628,0.00033431,0
 .00000009,0.00402977,-0.00285381,0.00000080,0.13503877,0.28805816,0.00
 000072,0.00000016,0.00044967,0.,0.00000005,-0.00424192,0.00000187,-0.0
 0000049,0.00398674,-0.00001361,-0.00001304,-0.03893425,-0.00000052,-0.
 00000357,0.00417171,-0.00000179,-0.00000074,0.00767341,-0.00000094,0.0
 0000036,-0.00069989,-0.00000052,0.00000140,0.00631582,0.00001397,0.000
 01586,0.02625865,-0.00035065,-0.00027740,0.00000021,-0.00053102,0.0014
 8438,-0.00000024,-0.00520430,-0.00082447,-0.00000200,-0.01082606,0.028
 66006,-0.00000198,-0.13133144,0.12438423,-0.00001165,0.01228289,-0.015
 09500,0.00000123,-0.00086385,-0.00339807,-0.00000083,-0.00085550,-0.00
 096615,-0.00000004,0.00103030,-0.00036252,0.00000072,0.13542580,-0.000
 02666,-0.00008274,0.00000013,-0.00013463,0.00020960,-0.00000025,-0.000
 83086,0.00192580,-0.00000014,-0.00212659,0.00429266,-0.00000017,0.1245
 8896,-0.27531024,0.00001689,0.01577839,-0.01802880,0.00000224,-0.00379
 711,-0.00317337,-0.00000042,-0.00103170,0.00012325,-0.00000010,0.00034
 033,0.00058043,0.00000007,-0.13346171,0.28945617,-0.00000005,-0.000000
 03,-0.00016567,-0.00000021,-0.00000003,0.00040850,-0.00000144,0.000000
 33,0.00765237,-0.00000175,0.00000342,0.00342030,-0.00001173,0.00001707
 ,-0.03864309,0.00000095,-0.00000180,0.00362427,-0.00000112,-0.00000036
 ,0.00741570,-0.00000002,-0.00000016,-0.00080517,0.00000064,-0.00000010
 ,-0.00418568,0.00001393,-0.00001827,0.02646845,-0.00002604,0.00000001,
 0.00000001,-0.00004586,-0.00000003,0.00000011,0.00087254,0.00000006,0.
 00000015,0.00042855,-0.00305501,-0.00000084,-0.01075833,0.00257172,-0.
 00000180,-0.34558097,-0.00000471,-0.00003786,-0.01075911,-0.00257223,-
 0.00000175,0.00042834,0.00305512,-0.00000090,-0.00057220,0.00023889,-0
 .00000007,0.00070972,-0.00017822,0.00000059,0.36516586,0.00000001,0.00
 002399,0.,-0.00000007,0.00009736,-0.00000001,0.00000008,-0.00153481,0.
 ,-0.00283821,-0.00457905,-0.00000024,-0.02824192,0.00497081,-0.0000032
 3,-0.00000463,-0.06039703,0.00000018,0.02824136,0.00497159,0.00000321,
 0.00283834,-0.00457883,0.00000047,-0.00136063,0.00013045,-0.00000021,0
 .00056890,0.00094588,0.00000002,0.00000506,0.05887330,0.00000018,0.,0.
 00023469,-0.00000008,-0.00000001,-0.00138650,0.00000032,0.00000001,-0.
 00079814,-0.00000141,0.00000012,0.00763328,-0.00000099,0.00000068,0.00
 411437,-0.00003791,0.00000021,-0.04000056,-0.00000149,-0.00000071,0.00
 411437,-0.00000149,0.00000010,0.00763330,0.00000006,0.00000002,-0.0001
 0172,0.00000047,-0.00000010,-0.00404117,0.00004184,-0.00000029,0.02674
 097,-0.00035102,0.00027731,0.00000021,-0.00053072,-0.00148465,-0.00000
 021,-0.00520441,0.00082474,-0.00000202,-0.00085561,0.00096614,-0.00000
 006,-0.00086410,0.00339813,-0.00000089,0.01228288,0.01509603,0.0000009
 3,-0.13132317,-0.12437957,-0.00000913,-0.01082514,-0.02866114,-0.00000
 141,0.00008165,-0.00008253,0.00000012,0.00043245,0.00079481,0.00000005
 ,0.00070974,-0.00056892,0.00000048,0.13541714,0.00002667,-0.00008265,-
 0.00000013,0.00013463,0.00020943,0.00000025,0.00083056,0.00192582,0.00
 000025,0.00103164,0.00012332,0.00000008,0.00379722,-0.00317311,0.00000
 063,-0.01577738,-0.01802882,-0.00000181,-0.12458450,-0.27531797,-0.000
 01211,0.00212595,0.00429183,0.00000015,-0.00008499,-0.00000720,0.,-0.0
 0079476,-0.00093143,-0.00000010,0.00017824,0.00094587,0.,0.13345707,0.
 28946449,-0.00000005,0.00000003,-0.00016567,-0.00000022,0.00000003,0.0
 0040835,-0.00000147,-0.00000022,0.00765264,-0.00000004,0.00000015,-0.0
 0080515,-0.00000117,0.00000056,0.00741574,0.00000125,0.00000217,0.0036
 2422,-0.00000918,-0.00001221,-0.03864327,-0.00000179,-0.00000344,0.003
 42036,0.00000016,-0.00000002,-0.00118225,0.00000006,0.00000012,0.00003
 343,0.00000059,-0.00000012,-0.00404120,0.00001121,0.00001295,0.0264684
 1,-0.00023486,0.00036330,0.,0.00156462,-0.00066370,0.00000053,0.010887
 21,-0.01564686,0.00000138,-0.00111459,-0.00327729,-0.00000090,-0.00084
 204,-0.00089501,-0.00000007,-0.00564571,-0.00103660,-0.00000165,-0.009
 40104,0.02788564,-0.00000249,-0.13444446,0.12800853,-0.00001441,0.0005
 4467,-0.00079975,0.00000005,0.00008166,0.00008500,0.00000016,-0.000572
 24,0.00136063,0.00000003,0.00103030,-0.00034033,0.00000065,0.13814648,
 -0.00051801,0.00022348,0.00000023,0.00110599,0.00019028,-0.00000007,0.
 01541292,-0.01812003,0.00000228,-0.00402976,-0.00285423,-0.00000062,-0
 .00071639,0.00033429,-0.00000010,-0.00078975,0.00149846,-0.00000003,-0
 .00228986,0.00520686,-0.00000043,0.12586242,-0.27436664,0.00001968,0.0
 0079979,-0.00086436,0.00000016,0.00008252,-0.00000720,0.,-0.00023890,0
 .00013048,-0.00000002,0.00036258,0.00058042,0.,-0.13504355,0.28804819,
 0.00000073,-0.00000016,0.00044984,-0.00000002,-0.00000014,-0.00424204,
 0.00000157,0.00000088,0.00398661,-0.00000046,-0.00000123,0.00631568,-0
 .00000092,-0.00000037,-0.00069986,-0.00000177,0.00000086,0.00767335,-0
 .00000049,0.00000356,0.00417142,-0.00001617,0.00001779,-0.03893346,0.0
 0000004,-0.00000013,0.00048970,0.00000012,-0.00000001,-0.00118224,-0.0
 0000006,0.00000021,-0.00010169,0.00000071,-0.00000017,-0.00418562,0.00
 001672,-0.00002109,0.02625830\\-0.00004012,0.00001295,-0.00003166,0.00
 003514,-0.00002822,0.00006210,-0.00005127,0.00001633,-0.00002881,0.000
 06022,0.00001382,-0.00000321,-0.00003247,-0.00001440,0.00000364,-0.000
 00145,0.00000136,-0.00000106,-0.00002997,0.00001564,0.00000347,0.00006
 376,-0.00001789,-0.00000329,-0.00001016,-0.00000774,-0.00000081,0.0000
 0250,-0.00000780,0.00000043,0.00001003,0.00000004,-0.00000053,0.000003
 06,0.00000779,0.00000050,-0.00000928,0.00000812,-0.00000076\\\@
 The archive entry for this job was punched.


 THERE IS NO CURE FOR BIRTH AND DEATH SAVE TO ENJOY THE INTERVAL.

                               -- GEORGE SANTAYANA
 Job cpu time:       0 days  0 hours 42 minutes 32.9 seconds.
 Elapsed time:       0 days  0 hours  5 minutes 23.6 seconds.
 File lengths (MBytes):  RWF=    163 Int=      0 D2E=      0 Chk=      8 Scr=      2
 Normal termination of Gaussian 16 at Mon Jun 20 18:05:34 2022.
