 Entering Gaussian System, Link 0=/opt/apps/Gaussian/G16C/g16/g16
 Input=/home/svss/projects/Project-Philicity/GS/hydrocarbon/set-1/GS/mol_33_hc/mol_33_hc.com
 Output=/home/svss/projects/Project-Philicity/GS/hydrocarbon/set-1/GS/mol_33_hc/mol_33_hc.log
 Initial command:
 /opt/apps/Gaussian/G16C/g16/l1.exe "/home/svss/projects/Project-Philicity/GS/hydrocarbon/set-1/Gau-295548.inp" -scrdir="/home/svss/projects/Project-Philicity/GS/hydrocarbon/set-1/"
 Entering Link 1 = /opt/apps/Gaussian/G16C/g16/l1.exe PID=    295549.
  
 Copyright (c) 1988-2019, Gaussian, Inc.  All Rights Reserved.
  
 This is part of the Gaussian(R) 16 program.  It is based on
 the Gaussian(R) 09 system (copyright 2009, Gaussian, Inc.),
 the Gaussian(R) 03 system (copyright 2003, Gaussian, Inc.),
 the Gaussian(R) 98 system (copyright 1998, Gaussian, Inc.),
 the Gaussian(R) 94 system (copyright 1995, Gaussian, Inc.),
 the Gaussian 92(TM) system (copyright 1992, Gaussian, Inc.),
 the Gaussian 90(TM) system (copyright 1990, Gaussian, Inc.),
 the Gaussian 88(TM) system (copyright 1988, Gaussian, Inc.),
 the Gaussian 86(TM) system (copyright 1986, Carnegie Mellon
 University), and the Gaussian 82(TM) system (copyright 1983,
 Carnegie Mellon University). Gaussian is a federally registered
 trademark of Gaussian, Inc.
  
 This software contains proprietary and confidential information,
 including trade secrets, belonging to Gaussian, Inc.
  
 This software is provided under written license and may be
 used, copied, transmitted, or stored only in accord with that
 written license.
  
 The following legend is applicable only to US Government
 contracts under FAR:
  
                    RESTRICTED RIGHTS LEGEND
  
 Use, reproduction and disclosure by the US Government is
 subject to restrictions as set forth in subparagraphs (a)
 and (c) of the Commercial Computer Software - Restricted
 Rights clause in FAR 52.227-19.
  
 Gaussian, Inc.
 340 Quinnipiac St., Bldg. 40, Wallingford CT 06492
  
  
 ---------------------------------------------------------------
 Warning -- This program may not be used in any manner that
 competes with the business of Gaussian, Inc. or will provide
 assistance to any competitor of Gaussian, Inc.  The licensee
 of this program is prohibited from giving any competitor of
 Gaussian, Inc. access to this program.  By using this program,
 the user acknowledges that Gaussian, Inc. is engaged in the
 business of creating and licensing software in the field of
 computational chemistry and represents and warrants to the
 licensee that it is not a competitor of Gaussian, Inc. and that
 it will not use this program in any manner prohibited above.
 ---------------------------------------------------------------
  

 Cite this work as:
 Gaussian 16, Revision C.01,
 M. J. Frisch, G. W. Trucks, H. B. Schlegel, G. E. Scuseria, 
 M. A. Robb, J. R. Cheeseman, G. Scalmani, V. Barone, 
 G. A. Petersson, H. Nakatsuji, X. Li, M. Caricato, A. V. Marenich, 
 J. Bloino, B. G. Janesko, R. Gomperts, B. Mennucci, H. P. Hratchian, 
 J. V. Ortiz, A. F. Izmaylov, J. L. Sonnenberg, D. Williams-Young, 
 F. Ding, F. Lipparini, F. Egidi, J. Goings, B. Peng, A. Petrone, 
 T. Henderson, D. Ranasinghe, V. G. Zakrzewski, J. Gao, N. Rega, 
 G. Zheng, W. Liang, M. Hada, M. Ehara, K. Toyota, R. Fukuda, 
 J. Hasegawa, M. Ishida, T. Nakajima, Y. Honda, O. Kitao, H. Nakai, 
 T. Vreven, K. Throssell, J. A. Montgomery, Jr., J. E. Peralta, 
 F. Ogliaro, M. J. Bearpark, J. J. Heyd, E. N. Brothers, K. N. Kudin, 
 V. N. Staroverov, T. A. Keith, R. Kobayashi, J. Normand, 
 K. Raghavachari, A. P. Rendell, J. C. Burant, S. S. Iyengar, 
 J. Tomasi, M. Cossi, J. M. Millam, M. Klene, C. Adamo, R. Cammi, 
 J. W. Ochterski, R. L. Martin, K. Morokuma, O. Farkas, 
 J. B. Foresman, and D. J. Fox, Gaussian, Inc., Wallingford CT, 2019.
 
 ******************************************
 Gaussian 16:  AS64L-G16RevC.01  3-Jul-2019
                20-Jun-2022 
 ******************************************
 %nproc=8
 Will use up to    8 processors via shared memory.
 %mem=96GB
 %chk=/home/svss/projects/Project-Philicity/GS/hydrocarbon/set-1/GS/mol_33_hc/mol
 _33_hc.chk
 -------------------------
 # opt freq M062X/def2tzvp
 -------------------------
 1/18=20,19=15,26=3,38=1/1,3;
 2/9=110,12=2,17=6,18=5,40=1/2;
 3/5=44,7=101,11=2,25=1,30=1,71=1,74=-55/1,2,3;
 4//1;
 5/5=2,38=5/2;
 6/7=2,8=2,9=2,10=2,28=1/1;
 7//1,2,3,16;
 1/18=20,19=15,26=3/3(2);
 2/9=110/2;
 99//99;
 2/9=110/2;
 3/5=44,7=101,11=2,25=1,30=1,71=1,74=-55/1,2,3;
 4/5=5,16=3,69=1/1;
 5/5=2,38=5/2;
 7//1,2,3,16;
 1/18=20,19=15,26=3/3(-5);
 2/9=110/2;
 6/7=2,8=2,9=2,10=2,19=2,28=1/1;
 99/9=1/99;
 ----------------------------------------------------------------------
 converted from /home/svss/projects/Project-Philicity/GS/hydrocarbon/se
 t-1/GS/mol_33_hc/mol_33_hc_cregen_best.xyz
 ----------------------------------------------------------------------
 Symbolic Z-matrix:
 Charge =  0 Multiplicity = 1
 Br                    0.01745   0.        0. 
 H                    -1.38328   0.        0. 
 

 GradGradGradGradGradGradGradGradGradGradGradGradGradGradGradGradGradGrad
 Berny optimization.
 Initialization pass.
                           ----------------------------
                           !    Initial Parameters    !
                           ! (Angstroms and Degrees)  !
 --------------------------                            --------------------------
 ! Name  Definition              Value          Derivative Info.                !
 --------------------------------------------------------------------------------
 ! R1    R(1,2)                  1.4007         estimate D2E/DX2                !
 --------------------------------------------------------------------------------
 Trust Radius=3.00D-01 FncErr=1.00D-07 GrdErr=1.00D-06 EigMax=2.50D+02 EigMin=1.00D-04
 Number of steps in this run=     20 maximum allowed number of steps=    100.
 GradGradGradGradGradGradGradGradGradGradGradGradGradGradGradGradGradGrad

                          Input orientation:                          
 ---------------------------------------------------------------------
 Center     Atomic      Atomic             Coordinates (Angstroms)
 Number     Number       Type             X           Y           Z
 ---------------------------------------------------------------------
      1         35           0        0.017450    0.000000    0.000000
      2          1           0       -1.383280    0.000000    0.000000
 ---------------------------------------------------------------------
 Stoichiometry    BrH
 Framework group  C*V[C*(HBr)]
 Deg. of freedom     1
 Full point group                 C*V     NOp   4
 Largest Abelian subgroup         C2V     NOp   4
 Largest concise Abelian subgroup C1      NOp   1
                         Standard orientation:                         
 ---------------------------------------------------------------------
 Center     Atomic      Atomic             Coordinates (Angstroms)
 Number     Number       Type             X           Y           Z
 ---------------------------------------------------------------------
      1         35           0        0.000000    0.000000    0.038909
      2          1           0        0.000000    0.000000   -1.361821
 ---------------------------------------------------------------------
 Rotational constants (GHZ):           0.0000000         258.8416921         258.8416921
 Standard basis: def2TZVP (5D, 7F)
 There are    30 symmetry adapted cartesian basis functions of A1  symmetry.
 There are     5 symmetry adapted cartesian basis functions of A2  symmetry.
 There are    13 symmetry adapted cartesian basis functions of B1  symmetry.
 There are    13 symmetry adapted cartesian basis functions of B2  symmetry.
 There are    25 symmetry adapted basis functions of A1  symmetry.
 There are     5 symmetry adapted basis functions of A2  symmetry.
 There are    12 symmetry adapted basis functions of B1  symmetry.
 There are    12 symmetry adapted basis functions of B2  symmetry.
    54 basis functions,   122 primitive gaussians,    61 cartesian basis functions
    18 alpha electrons       18 beta electrons
       nuclear repulsion energy        13.2225356651 Hartrees.
 NAtoms=    2 NActive=    2 NUniq=    2 SFac= 1.00D+00 NAtFMM=   60 NAOKFM=F Big=F
 Integral buffers will be    131072 words long.
 Raffenetti 2 integral format.
 Two-electron integral symmetry is turned on.
 One-electron integrals computed using PRISM.
   4 Symmetry operations used in ECPInt.
 ECPInt:  NShTT=     210 NPrTT=    1104 LenC2=     211 LenP2D=    1081.
 LDataN:  DoStor=T MaxTD1= 6 Len=  172
 NBasis=    54 RedAO= T EigKep=  1.81D-02  NBF=    25     5    12    12
 NBsUse=    54 1.00D-06 EigRej= -1.00D+00 NBFU=    25     5    12    12
 ExpMin= 1.01D-01 ExpMax= 5.65D+05 ExpMxC= 5.46D+03 IAcc=3 IRadAn=         5 AccDes= 0.00D+00
 Harris functional with IExCor= 1009 and IRadAn=       5 diagonalized for initial guess.
 HarFok:  IExCor= 1009 AccDes= 0.00D+00 IRadAn=         5 IDoV= 1 UseB2=F ITyADJ=14
 ICtDFT=  3500011 ScaDFX=  1.000000  1.000000  1.000000  1.000000
 FoFCou: FMM=F IPFlag=           0 FMFlag=      100000 FMFlg1=           0
         NFxFlg=           0 DoJE=T BraDBF=F KetDBF=T FulRan=T
         wScrn=  0.000000 ICntrl=       500 IOpCl=  0 I1Cent=   200000004 NGrid=           0
         NMat0=    1 NMatS0=      1 NMatT0=    0 NMatD0=    1 NMtDS0=    0 NMtDT0=    0
 Petite list used in FoFCou.
 Initial guess orbital symmetries:
       Occupied  (SG) (SG) (SG) (PI) (PI) (SG) (SG) (PI) (PI) (SG)
                 (PI) (PI) (DLTA) (DLTA) (SG) (SG) (PI) (PI)
       Virtual   (SG) (SG) (PI) (PI) (SG) (DLTA) (DLTA) (PI) (PI)
                 (SG) (SG) (PI) (PI) (SG) (PI) (PI) (DLTA) (DLTA)
                 (DLTA) (DLTA) (PHI) (PHI) (SG) (PI) (PI) (SG)
                 (PI) (PI) (SG) (SG) (PI) (PI) (DLTA) (DLTA) (SG)
                 (SG)
 The electronic state of the initial guess is 1-SG.
 Keep R1 ints in memory in symmetry-blocked form, NReq=8195372.
 Requested convergence on RMS density matrix=1.00D-08 within 128 cycles.
 Requested convergence on MAX density matrix=1.00D-06.
 Requested convergence on             energy=1.00D-06.
 No special actions if energy rises.
 Integral accuracy reduced to 1.0D-05 until final iterations.
 Initial convergence to 1.0D-05 achieved.  Increase integral accuracy.
 SCF Done:  E(RM062X) =  -2574.79040237     A.U. after   12 cycles
            NFock= 12  Conv=0.54D-08     -V/T= 2.0013

 **********************************************************************

            Population analysis using the SCF Density.

 **********************************************************************

 Orbital symmetries:
       Occupied  (SG) (SG) (SG) (PI) (PI) (SG) (SG) (PI) (PI) (SG)
                 (PI) (PI) (DLTA) (DLTA) (SG) (SG) (PI) (PI)
       Virtual   (SG) (SG) (SG) (PI) (PI) (PI) (PI) (DLTA) (DLTA)
                 (SG) (SG) (SG) (PI) (PI) (PI) (PI) (DLTA) (DLTA)
                 (DLTA) (DLTA) (PHI) (PHI) (SG) (PI) (PI) (SG)
                 (PI) (PI) (SG) (SG) (PI) (PI) (DLTA) (DLTA) (SG)
                 (SG)
 The electronic state is 1-SG.
 Alpha  occ. eigenvalues -- -485.38064 -63.36673 -57.18593 -57.18372 -57.18372
 Alpha  occ. eigenvalues --   -9.03411  -6.85822  -6.84947  -6.84947  -2.89217
 Alpha  occ. eigenvalues --   -2.88851  -2.88851  -2.88062  -2.88062  -0.88282
 Alpha  occ. eigenvalues --   -0.50728  -0.36777  -0.36777
 Alpha virt. eigenvalues --    0.03167   0.19710   0.28471   0.28493   0.28493
 Alpha virt. eigenvalues --    0.30842   0.30842   0.34001   0.34003   0.56195
 Alpha virt. eigenvalues --    0.74285   1.28254   1.29895   1.29895   1.36469
 Alpha virt. eigenvalues --    1.36469   1.37666   1.37675   1.54854   1.54864
 Alpha virt. eigenvalues --    1.56875   1.56875   1.61028   1.62170   1.62170
 Alpha virt. eigenvalues --    1.73100   2.02521   2.02521   2.40798   2.81564
 Alpha virt. eigenvalues --    4.02655   4.02655   4.03488   4.03500   4.22575
 Alpha virt. eigenvalues --    7.41393
          Condensed to atoms (all electrons):
               1          2
     1  Br  34.888445   0.327003
     2  H    0.327003   0.457549
 Mulliken charges:
               1
     1  Br  -0.215448
     2  H    0.215448
 Sum of Mulliken charges =   0.00000
 Mulliken charges with hydrogens summed into heavy atoms:
               1
     1  Br   0.000000
 Electronic spatial extent (au):  <R**2>=             48.2404
 Charge=              0.0000 electrons
 Dipole moment (field-independent basis, Debye):
    X=              0.0000    Y=              0.0000    Z=             -0.9478  Tot=              0.9478
 Quadrupole moment (field-independent basis, Debye-Ang):
   XX=            -19.9907   YY=            -19.9907   ZZ=            -15.7413
   XY=              0.0000   XZ=              0.0000   YZ=              0.0000
 Traceless Quadrupole moment (field-independent basis, Debye-Ang):
   XX=             -1.4165   YY=             -1.4165   ZZ=              2.8329
   XY=              0.0000   XZ=              0.0000   YZ=              0.0000
 Octapole moment (field-independent basis, Debye-Ang**2):
  XXX=              0.0000  YYY=              0.0000  ZZZ=             -1.7322  XYY=              0.0000
  XXY=              0.0000  XXZ=              0.3805  XZZ=              0.0000  YZZ=              0.0000
  YYZ=              0.3805  XYZ=              0.0000
 Hexadecapole moment (field-independent basis, Debye-Ang**3):
 XXXX=            -24.8018 YYYY=            -24.8018 ZZZZ=            -20.5273 XXXY=              0.0000
 XXXZ=              0.0000 YYYX=              0.0000 YYYZ=              0.0000 ZZZX=              0.0000
 ZZZY=              0.0000 XXYY=             -8.2672 XXZZ=             -8.5268 YYZZ=             -8.5268
 XXYZ=              0.0000 YYXZ=              0.0000 ZZXY=              0.0000
 N-N= 1.322253566512D+01 E-N=-6.180834946944D+03  KE= 2.571555881228D+03
 Symmetry A1   KE= 1.862443508477D+03
 Symmetry A2   KE= 4.314843822158D+01
 Symmetry B1   KE= 3.329819672646D+02
 Symmetry B2   KE= 3.329819672646D+02
   4 Symmetry operations used in ECPInt.
 ECPInt:  NShTT=     210 NPrTT=    1104 LenC2=     211 LenP2D=    1081.
 LDataN:  DoStor=T MaxTD1= 7 Len=  274
 Calling FoFJK, ICntrl=      2127 FMM=F ISym2X=1 I1Cent= 0 IOpClX= 0 NMat=1 NMatS=1 NMatT=0.
 ***** Axes restored to original set *****
 -------------------------------------------------------------------
 Center     Atomic                   Forces (Hartrees/Bohr)
 Number     Number              X              Y              Z
 -------------------------------------------------------------------
      1       35           0.011048856   -0.000000000   -0.000000000
      2        1          -0.011048856   -0.000000000   -0.000000000
 -------------------------------------------------------------------
 Cartesian Forces:  Max     0.011048856 RMS     0.006379060

 GradGradGradGradGradGradGradGradGradGradGradGradGradGradGradGradGradGrad
 Berny optimization.
 FormGI is forming the generalized inverse of G from B-inverse, IUseBI=4.
 Internal  Forces:  Max     0.011048856 RMS     0.011048856
 Search for a local minimum.
 Step number   1 out of a maximum of   20
 All quantities printed in internal units (Hartrees-Bohrs-Radians)
 Mixed Optimization -- RFO/linear search
 Second derivative matrix not updated -- first step.
 The second derivative matrix:
                          R1
           R1           0.23956
 ITU=  0
     Eigenvalues ---    0.23956
 RFO step:  Lambda=-5.08511528D-04 EMin= 2.39559218D-01
 Linear search not attempted -- first point.
 Iteration  1 RMS(Cart)=  0.03254382 RMS(Int)=  0.00000000
 Iteration  2 RMS(Cart)=  0.00000000 RMS(Int)=  0.00000000
 ClnCor:  largest displacement from symmetrization is 6.94D-18 for atom     1.
 Variable       Old X    -DE/DX   Delta X   Delta X   Delta X     New X
                                 (Linear)    (Quad)   (Total)
    R1        2.64700   0.01105   0.00000   0.04602   0.04602   2.69302
         Item               Value     Threshold  Converged?
 Maximum Force            0.011049     0.000450     NO 
 RMS     Force            0.011049     0.000300     NO 
 Maximum Displacement     0.023012     0.001800     NO 
 RMS     Displacement     0.032544     0.001200     NO 
 Predicted change in Energy=-2.547943D-04
 GradGradGradGradGradGradGradGradGradGradGradGradGradGradGradGradGradGrad

                          Input orientation:                          
 ---------------------------------------------------------------------
 Center     Atomic      Atomic             Coordinates (Angstroms)
 Number     Number       Type             X           Y           Z
 ---------------------------------------------------------------------
      1         35           0        0.029627    0.000000    0.000000
      2          1           0       -1.395457    0.000000    0.000000
 ---------------------------------------------------------------------
 Stoichiometry    BrH
 Framework group  C*V[C*(HBr)]
 Deg. of freedom     1
 Full point group                 C*V     NOp   4
 Largest Abelian subgroup         C2V     NOp   4
 Largest concise Abelian subgroup C1      NOp   1
                         Standard orientation:                         
 ---------------------------------------------------------------------
 Center     Atomic      Atomic             Coordinates (Angstroms)
 Number     Number       Type             X           Y           Z
 ---------------------------------------------------------------------
      1         35           0        0.000000    0.000000    0.039586
      2          1           0        0.000000    0.000000   -1.385499
 ---------------------------------------------------------------------
 Rotational constants (GHZ):           0.0000000         250.0700450         250.0700450
 Standard basis: def2TZVP (5D, 7F)
 There are    30 symmetry adapted cartesian basis functions of A1  symmetry.
 There are     5 symmetry adapted cartesian basis functions of A2  symmetry.
 There are    13 symmetry adapted cartesian basis functions of B1  symmetry.
 There are    13 symmetry adapted cartesian basis functions of B2  symmetry.
 There are    25 symmetry adapted basis functions of A1  symmetry.
 There are     5 symmetry adapted basis functions of A2  symmetry.
 There are    12 symmetry adapted basis functions of B1  symmetry.
 There are    12 symmetry adapted basis functions of B2  symmetry.
    54 basis functions,   122 primitive gaussians,    61 cartesian basis functions
    18 alpha electrons       18 beta electrons
       nuclear repulsion energy        12.9965615576 Hartrees.
 NAtoms=    2 NActive=    2 NUniq=    2 SFac= 1.00D+00 NAtFMM=   60 NAOKFM=F Big=F
 Integral buffers will be    131072 words long.
 Raffenetti 2 integral format.
 Two-electron integral symmetry is turned on.
 One-electron integrals computed using PRISM.
   4 Symmetry operations used in ECPInt.
 ECPInt:  NShTT=     210 NPrTT=    1104 LenC2=     211 LenP2D=    1081.
 LDataN:  DoStor=T MaxTD1= 6 Len=  172
 NBasis=    54 RedAO= T EigKep=  1.85D-02  NBF=    25     5    12    12
 NBsUse=    54 1.00D-06 EigRej= -1.00D+00 NBFU=    25     5    12    12
 Initial guess from the checkpoint file:  "/home/svss/projects/Project-Philicity/GS/hydrocarbon/set-1/GS/mol_33_hc/mol_33_hc.chk"
 B after Tr=     0.000000    0.000000   -0.000000
         Rot=    1.000000    0.000000    0.000000    0.000000 Ang=   0.00 deg.
 Initial guess orbital symmetries:
       Occupied  (SG) (SG) (SG) (PI) (PI) (SG) (SG) (PI) (PI) (SG)
                 (PI) (PI) (DLTA) (DLTA) (SG) (SG) (PI) (PI)
       Virtual   (SG) (SG) (SG) (PI) (PI) (PI) (PI) (DLTA) (DLTA)
                 (SG) (SG) (SG) (PI) (PI) (PI) (PI) (DLTA) (DLTA)
                 (DLTA) (DLTA) (PHI) (PHI) (SG) (PI) (PI) (SG)
                 (PI) (PI) (SG) (SG) (PI) (PI) (DLTA) (DLTA) (SG)
                 (SG)
 ExpMin= 1.01D-01 ExpMax= 5.65D+05 ExpMxC= 5.46D+03 IAcc=3 IRadAn=         5 AccDes= 0.00D+00
 Harris functional with IExCor= 1009 and IRadAn=       5 diagonalized for initial guess.
 HarFok:  IExCor= 1009 AccDes= 0.00D+00 IRadAn=         5 IDoV= 1 UseB2=F ITyADJ=14
 ICtDFT=  3500011 ScaDFX=  1.000000  1.000000  1.000000  1.000000
 FoFCou: FMM=F IPFlag=           0 FMFlag=      100000 FMFlg1=           0
         NFxFlg=           0 DoJE=T BraDBF=F KetDBF=T FulRan=T
         wScrn=  0.000000 ICntrl=       500 IOpCl=  0 I1Cent=   200000004 NGrid=           0
         NMat0=    1 NMatS0=      1 NMatT0=    0 NMatD0=    1 NMtDS0=    0 NMtDT0=    0
 Petite list used in FoFCou.
 Keep R1 ints in memory in symmetry-blocked form, NReq=8195372.
 Requested convergence on RMS density matrix=1.00D-08 within 128 cycles.
 Requested convergence on MAX density matrix=1.00D-06.
 Requested convergence on             energy=1.00D-06.
 No special actions if energy rises.
 Integral accuracy reduced to 1.0D-05 until final iterations.
 Initial convergence to 1.0D-05 achieved.  Increase integral accuracy.
 SCF Done:  E(RM062X) =  -2574.79060849     A.U. after   10 cycles
            NFock= 10  Conv=0.30D-08     -V/T= 2.0013
   4 Symmetry operations used in ECPInt.
 ECPInt:  NShTT=     210 NPrTT=    1104 LenC2=     211 LenP2D=    1081.
 LDataN:  DoStor=T MaxTD1= 7 Len=  274
 Calling FoFJK, ICntrl=      2127 FMM=F ISym2X=1 I1Cent= 0 IOpClX= 0 NMat=1 NMatS=1 NMatT=0.
 ***** Axes restored to original set *****
 -------------------------------------------------------------------
 Center     Atomic                   Forces (Hartrees/Bohr)
 Number     Number              X              Y              Z
 -------------------------------------------------------------------
      1       35          -0.001856316   -0.000000000   -0.000000000
      2        1           0.001856316   -0.000000000   -0.000000000
 -------------------------------------------------------------------
 Cartesian Forces:  Max     0.001856316 RMS     0.001071745

 GradGradGradGradGradGradGradGradGradGradGradGradGradGradGradGradGradGrad
 Berny optimization.
 Using GEDIIS/GDIIS optimizer.
 Internal  Forces:  Max     0.001856316 RMS     0.001856316
 Search for a local minimum.
 Step number   2 out of a maximum of   20
 All quantities printed in internal units (Hartrees-Bohrs-Radians)
 Mixed Optimization -- RFO/linear search
 Update second derivatives using D2CorX and points    1    2
 DE= -2.06D-04 DEPred=-2.55D-04 R= 8.09D-01
 TightC=F SS=  1.41D+00  RLast= 4.60D-02 DXNew= 5.0454D-01 1.3807D-01
 Trust test= 8.09D-01 RLast= 4.60D-02 DXMaxT set to 3.00D-01
 The second derivative matrix:
                          R1
           R1           0.28040
 ITU=  1  0
 Use linear search instead of GDIIS.
     Eigenvalues ---    0.28040
 RFO step:  Lambda= 0.00000000D+00 EMin= 2.80401464D-01
 Quartic linear search produced a step of -0.15080.
 Iteration  1 RMS(Cart)=  0.00490759 RMS(Int)=  0.00000000
 Iteration  2 RMS(Cart)=  0.00000000 RMS(Int)=  0.00000000
 ClnCor:  largest displacement from symmetrization is 0.00D+00 for atom     0.
 Variable       Old X    -DE/DX   Delta X   Delta X   Delta X     New X
                                 (Linear)    (Quad)   (Total)
    R1        2.69302  -0.00186  -0.00694  -0.00000  -0.00694   2.68608
         Item               Value     Threshold  Converged?
 Maximum Force            0.001856     0.000450     NO 
 RMS     Force            0.001856     0.000300     NO 
 Maximum Displacement     0.003470     0.001800     NO 
 RMS     Displacement     0.004908     0.001200     NO 
 Predicted change in Energy=-6.130228D-06
 GradGradGradGradGradGradGradGradGradGradGradGradGradGradGradGradGradGrad

                          Input orientation:                          
 ---------------------------------------------------------------------
 Center     Atomic      Atomic             Coordinates (Angstroms)
 Number     Number       Type             X           Y           Z
 ---------------------------------------------------------------------
      1         35           0        0.027791    0.000000    0.000000
      2          1           0       -1.393621    0.000000    0.000000
 ---------------------------------------------------------------------
 Stoichiometry    BrH
 Framework group  C*V[C*(HBr)]
 Deg. of freedom     1
 Full point group                 C*V     NOp   4
 Largest Abelian subgroup         C2V     NOp   4
 Largest concise Abelian subgroup C1      NOp   1
                         Standard orientation:                         
 ---------------------------------------------------------------------
 Center     Atomic      Atomic             Coordinates (Angstroms)
 Number     Number       Type             X           Y           Z
 ---------------------------------------------------------------------
      1         35           0        0.000000    0.000000    0.039484
      2          1           0        0.000000    0.000000   -1.381928
 ---------------------------------------------------------------------
 Rotational constants (GHZ):           0.0000000         251.3639932         251.3639932
 Standard basis: def2TZVP (5D, 7F)
 There are    30 symmetry adapted cartesian basis functions of A1  symmetry.
 There are     5 symmetry adapted cartesian basis functions of A2  symmetry.
 There are    13 symmetry adapted cartesian basis functions of B1  symmetry.
 There are    13 symmetry adapted cartesian basis functions of B2  symmetry.
 There are    25 symmetry adapted basis functions of A1  symmetry.
 There are     5 symmetry adapted basis functions of A2  symmetry.
 There are    12 symmetry adapted basis functions of B1  symmetry.
 There are    12 symmetry adapted basis functions of B2  symmetry.
    54 basis functions,   122 primitive gaussians,    61 cartesian basis functions
    18 alpha electrons       18 beta electrons
       nuclear repulsion energy        13.0301425074 Hartrees.
 NAtoms=    2 NActive=    2 NUniq=    2 SFac= 1.00D+00 NAtFMM=   60 NAOKFM=F Big=F
 Integral buffers will be    131072 words long.
 Raffenetti 2 integral format.
 Two-electron integral symmetry is turned on.
 One-electron integrals computed using PRISM.
   4 Symmetry operations used in ECPInt.
 ECPInt:  NShTT=     210 NPrTT=    1104 LenC2=     211 LenP2D=    1081.
 LDataN:  DoStor=T MaxTD1= 6 Len=  172
 NBasis=    54 RedAO= T EigKep=  1.84D-02  NBF=    25     5    12    12
 NBsUse=    54 1.00D-06 EigRej= -1.00D+00 NBFU=    25     5    12    12
 Initial guess from the checkpoint file:  "/home/svss/projects/Project-Philicity/GS/hydrocarbon/set-1/GS/mol_33_hc/mol_33_hc.chk"
 B after Tr=     0.000000    0.000000    0.000000
         Rot=    1.000000    0.000000    0.000000    0.000000 Ang=   0.00 deg.
 Initial guess orbital symmetries:
       Occupied  (SG) (SG) (SG) (PI) (PI) (SG) (SG) (PI) (PI) (SG)
                 (PI) (PI) (DLTA) (DLTA) (SG) (SG) (PI) (PI)
       Virtual   (SG) (SG) (PI) (PI) (SG) (PI) (PI) (DLTA) (DLTA)
                 (SG) (SG) (SG) (PI) (PI) (PI) (PI) (DLTA) (DLTA)
                 (DLTA) (DLTA) (PHI) (PHI) (SG) (PI) (PI) (SG)
                 (PI) (PI) (SG) (SG) (PI) (PI) (DLTA) (DLTA) (SG)
                 (SG)
 Keep R1 ints in memory in symmetry-blocked form, NReq=8195372.
 Requested convergence on RMS density matrix=1.00D-08 within 128 cycles.
 Requested convergence on MAX density matrix=1.00D-06.
 Requested convergence on             energy=1.00D-06.
 No special actions if energy rises.
 SCF Done:  E(RM062X) =  -2574.79061494     A.U. after    7 cycles
            NFock=  7  Conv=0.51D-08     -V/T= 2.0013
   4 Symmetry operations used in ECPInt.
 ECPInt:  NShTT=     210 NPrTT=    1104 LenC2=     211 LenP2D=    1081.
 LDataN:  DoStor=T MaxTD1= 7 Len=  274
 Calling FoFJK, ICntrl=      2127 FMM=F ISym2X=1 I1Cent= 0 IOpClX= 0 NMat=1 NMatS=1 NMatT=0.
 ***** Axes restored to original set *****
 -------------------------------------------------------------------
 Center     Atomic                   Forces (Hartrees/Bohr)
 Number     Number              X              Y              Z
 -------------------------------------------------------------------
      1       35           0.000003024   -0.000000000   -0.000000000
      2        1          -0.000003024   -0.000000000   -0.000000000
 -------------------------------------------------------------------
 Cartesian Forces:  Max     0.000003024 RMS     0.000001746

 GradGradGradGradGradGradGradGradGradGradGradGradGradGradGradGradGradGrad
 Berny optimization.
 Using GEDIIS/GDIIS optimizer.
 Internal  Forces:  Max     0.000003024 RMS     0.000003024
 Search for a local minimum.
 Step number   3 out of a maximum of   20
 All quantities printed in internal units (Hartrees-Bohrs-Radians)
 Mixed Optimization -- En-DIIS/RFO-DIIS
 Update second derivatives using D2CorX and points    2    3
 DE= -6.45D-06 DEPred=-6.13D-06 R= 1.05D+00
 TightC=F SS=  1.41D+00  RLast= 6.94D-03 DXNew= 5.0454D-01 2.0821D-02
 Trust test= 1.05D+00 RLast= 6.94D-03 DXMaxT set to 3.00D-01
 The second derivative matrix:
                          R1
           R1           0.26790
 ITU=  1  1
 Use linear search instead of GDIIS.
     Eigenvalues ---    0.26790
 RFO step:  Lambda= 0.00000000D+00 EMin= 2.67901628D-01
 Quartic linear search produced a step of -0.00161.
 Iteration  1 RMS(Cart)=  0.00000792 RMS(Int)=  0.00000000
 Iteration  2 RMS(Cart)=  0.00000000 RMS(Int)=  0.00000000
 ClnCor:  largest displacement from symmetrization is 0.00D+00 for atom     0.
 Variable       Old X    -DE/DX   Delta X   Delta X   Delta X     New X
                                 (Linear)    (Quad)   (Total)
    R1        2.68608   0.00000   0.00001  -0.00000   0.00001   2.68609
         Item               Value     Threshold  Converged?
 Maximum Force            0.000003     0.000450     YES
 RMS     Force            0.000003     0.000300     YES
 Maximum Displacement     0.000006     0.001800     YES
 RMS     Displacement     0.000008     0.001200     YES
 Predicted change in Energy=-1.706088D-11
 Optimization completed.
    -- Stationary point found.
                           ----------------------------
                           !   Optimized Parameters   !
                           ! (Angstroms and Degrees)  !
 --------------------------                            --------------------------
 ! Name  Definition              Value          Derivative Info.                !
 --------------------------------------------------------------------------------
 ! R1    R(1,2)                  1.4214         -DE/DX =    0.0                 !
 --------------------------------------------------------------------------------
 GradGradGradGradGradGradGradGradGradGradGradGradGradGradGradGradGradGrad

                          Input orientation:                          
 ---------------------------------------------------------------------
 Center     Atomic      Atomic             Coordinates (Angstroms)
 Number     Number       Type             X           Y           Z
 ---------------------------------------------------------------------
      1         35           0        0.027791    0.000000    0.000000
      2          1           0       -1.393621    0.000000    0.000000
 ---------------------------------------------------------------------
 Stoichiometry    BrH
 Framework group  C*V[C*(HBr)]
 Deg. of freedom     1
 Full point group                 C*V     NOp   4
 Largest Abelian subgroup         C2V     NOp   4
 Largest concise Abelian subgroup C1      NOp   1
                         Standard orientation:                         
 ---------------------------------------------------------------------
 Center     Atomic      Atomic             Coordinates (Angstroms)
 Number     Number       Type             X           Y           Z
 ---------------------------------------------------------------------
      1         35           0        0.000000    0.000000    0.039484
      2          1           0        0.000000    0.000000   -1.381928
 ---------------------------------------------------------------------
 Rotational constants (GHZ):           0.0000000         251.3639932         251.3639932

 **********************************************************************

            Population analysis using the SCF Density.

 **********************************************************************

 Orbital symmetries:
       Occupied  (SG) (SG) (SG) (PI) (PI) (SG) (SG) (PI) (PI) (SG)
                 (PI) (PI) (DLTA) (DLTA) (SG) (SG) (PI) (PI)
       Virtual   (SG) (SG) (PI) (PI) (SG) (PI) (PI) (DLTA) (DLTA)
                 (SG) (SG) (SG) (PI) (PI) (PI) (PI) (DLTA) (DLTA)
                 (DLTA) (DLTA) (PHI) (PHI) (SG) (PI) (PI) (SG)
                 (PI) (PI) (SG) (SG) (PI) (PI) (DLTA) (DLTA) (SG)
                 (SG)
 The electronic state is 1-SG.
 Alpha  occ. eigenvalues -- -485.38123 -63.36715 -57.18640 -57.18415 -57.18415
 Alpha  occ. eigenvalues --   -9.03436  -6.85848  -6.84967  -6.84967  -2.89239
 Alpha  occ. eigenvalues --   -2.88879  -2.88879  -2.88079  -2.88079  -0.88003
 Alpha  occ. eigenvalues --   -0.50453  -0.36740  -0.36740
 Alpha virt. eigenvalues --    0.02662   0.19832   0.28490   0.28490   0.28498
 Alpha virt. eigenvalues --    0.30881   0.30881   0.34024   0.34025   0.55508
 Alpha virt. eigenvalues --    0.73962   1.28268   1.30013   1.30013   1.36164
 Alpha virt. eigenvalues --    1.36164   1.37687   1.37695   1.54902   1.54912
 Alpha virt. eigenvalues --    1.56899   1.56899   1.61270   1.62170   1.62170
 Alpha virt. eigenvalues --    1.72536   2.00854   2.00854   2.39318   2.80092
 Alpha virt. eigenvalues --    4.02595   4.02595   4.03488   4.03504   4.22774
 Alpha virt. eigenvalues --    7.38783
          Condensed to atoms (all electrons):
               1          2
     1  Br  34.894128   0.323711
     2  H    0.323711   0.458449
 Mulliken charges:
               1
     1  Br  -0.217840
     2  H    0.217840
 Sum of Mulliken charges =   0.00000
 Mulliken charges with hydrogens summed into heavy atoms:
               1
     1  Br   0.000000
 Electronic spatial extent (au):  <R**2>=             48.4444
 Charge=             -0.0000 electrons
 Dipole moment (field-independent basis, Debye):
    X=              0.0000    Y=              0.0000    Z=             -0.9609  Tot=              0.9609
 Quadrupole moment (field-independent basis, Debye-Ang):
   XX=            -20.0178   YY=            -20.0178   ZZ=            -15.6888
   XY=              0.0000   XZ=              0.0000   YZ=              0.0000
 Traceless Quadrupole moment (field-independent basis, Debye-Ang):
   XX=             -1.4430   YY=             -1.4430   ZZ=              2.8860
   XY=              0.0000   XZ=              0.0000   YZ=              0.0000
 Octapole moment (field-independent basis, Debye-Ang**2):
  XXX=              0.0000  YYY=              0.0000  ZZZ=             -1.8237  XYY=              0.0000
  XXY=              0.0000  XXZ=              0.4082  XZZ=              0.0000  YZZ=              0.0000
  YYZ=              0.4082  XYZ=              0.0000
 Hexadecapole moment (field-independent basis, Debye-Ang**3):
 XXXX=            -24.8586 YYYY=            -24.8586 ZZZZ=            -20.5614 XXXY=              0.0000
 XXXZ=              0.0000 YYYX=              0.0000 YYYZ=              0.0000 ZZZX=              0.0000
 ZZZY=              0.0000 XXYY=             -8.2861 XXZZ=             -8.6065 YYZZ=             -8.6065
 XXYZ=              0.0000 YYXZ=              0.0000 ZZXY=              0.0000
 N-N= 1.303014250741D+01 E-N=-6.180427575230D+03  KE= 2.571526895534D+03
 Symmetry A1   KE= 1.862409107824D+03
 Symmetry A2   KE= 4.314925187281D+01
 Symmetry B1   KE= 3.329842679186D+02
 Symmetry B2   KE= 3.329842679186D+02
 Unable to Open any file for archive entry.
 1\1\GINC-NODE12\FOpt\RM062X\def2TZVP\Br1H1\SVSS\20-Jun-2022\0\\# opt f
 req M062X/def2tzvp\\converted from /home/svss/projects/Project-Philici
 ty/GS/hydrocarbon/set-1/GS/mol_33_hc/mol_33_hc_cregen_best.xyz\\0,1\Br
 ,0.027791056,0.,0.\H,-1.393621056,0.,0.\\Version=AS64L-G16RevC.01\Stat
 e=1-SG\HF=-2574.7906149\RMSD=5.098e-09\RMSF=1.746e-06\Dipole=-0.378031
 5,0.,0.\Quadrupole=2.1456914,-1.0728457,-1.0728457,0.,0.,0.\PG=C*V [C*
 (H1Br1)]\\@
 The archive entry for this job was punched.


 WE TEND TO MEET ANY NEW SITUATION BY REORGANIZING. IT CAN BE A
 WONDERFUL METHOD FOR CREATING THE ILLUSION OF PROGRESS WHILE PRODUCING
 CONFUSION, INEFFICIENCY, AND DEMORALIZATION.
     -- PETRONIUS ARBITER, 210 B.C.
 Job cpu time:       0 days  0 hours  0 minutes 25.9 seconds.
 Elapsed time:       0 days  0 hours  0 minutes  5.1 seconds.
 File lengths (MBytes):  RWF=     17 Int=      0 D2E=      0 Chk=      2 Scr=      2
 Normal termination of Gaussian 16 at Mon Jun 20 20:15:19 2022.
 Link1:  Proceeding to internal job step number  2.
 --------------------------------------------------------------------
 #N Geom=AllCheck Guess=TCheck SCRF=Check GenChk RM062X/def2TZVP Freq
 --------------------------------------------------------------------
 1/10=4,29=7,30=1,38=1,40=1/1,3;
 2/12=2,40=1/2;
 3/5=44,7=101,11=2,14=-4,25=1,30=1,70=2,71=2,74=-55,116=1,140=1/1,2,3;
 4/5=101/1;
 5/5=2,38=6,98=1/2;
 8/6=4,10=90,11=11/1;
 11/6=1,8=1,9=11,15=111,16=1/1,2,10;
 10/6=1/2;
 6/7=2,8=2,9=2,10=2,28=1/1;
 7/8=1,10=1,25=1/1,2,3,16;
 1/10=4,30=1/3;
 99//99;
 Structure from the checkpoint file:  "/home/svss/projects/Project-Philicity/GS/hydrocarbon/set-1/GS/mol_33_hc/mol_33_hc.chk"
 ----------------------------------------------------------------------
 converted from /home/svss/projects/Project-Philicity/GS/hydrocarbon/se
 t-1/GS/mol_33_hc/mol_33_hc_cregen_best.xyz
 ----------------------------------------------------------------------
 Charge =  0 Multiplicity = 1
 Redundant internal coordinates found in file.  (old form).
 Br,0,0.027791056,0.,0.
 H,0,-1.393621056,0.,0.
 Recover connectivity data from disk.

 GradGradGradGradGradGradGradGradGradGradGradGradGradGradGradGradGradGrad
 Berny optimization.
 Initialization pass.
                           ----------------------------
                           !    Initial Parameters    !
                           ! (Angstroms and Degrees)  !
 --------------------------                            --------------------------
 ! Name  Definition              Value          Derivative Info.                !
 --------------------------------------------------------------------------------
 ! R1    R(1,2)                  1.4214         calculate D2E/DX2 analytically  !
 --------------------------------------------------------------------------------
 Trust Radius=3.00D-01 FncErr=1.00D-07 GrdErr=1.00D-07 EigMax=2.50D+02 EigMin=1.00D-04
 Number of steps in this run=      2 maximum allowed number of steps=      2.
 GradGradGradGradGradGradGradGradGradGradGradGradGradGradGradGradGradGrad

                          Input orientation:                          
 ---------------------------------------------------------------------
 Center     Atomic      Atomic             Coordinates (Angstroms)
 Number     Number       Type             X           Y           Z
 ---------------------------------------------------------------------
      1         35           0        0.027791    0.000000    0.000000
      2          1           0       -1.393621    0.000000    0.000000
 ---------------------------------------------------------------------
 Stoichiometry    BrH
 Framework group  C*V[C*(HBr)]
 Deg. of freedom     1
 Full point group                 C*V     NOp   4
 Largest Abelian subgroup         C2V     NOp   4
 Largest concise Abelian subgroup C1      NOp   1
                         Standard orientation:                         
 ---------------------------------------------------------------------
 Center     Atomic      Atomic             Coordinates (Angstroms)
 Number     Number       Type             X           Y           Z
 ---------------------------------------------------------------------
      1         35           0        0.000000    0.000000    0.039484
      2          1           0        0.000000    0.000000   -1.381928
 ---------------------------------------------------------------------
 Rotational constants (GHZ):           0.0000000         251.3639932         251.3639932
 Standard basis: def2TZVP (5D, 7F)
 There are    30 symmetry adapted cartesian basis functions of A1  symmetry.
 There are     5 symmetry adapted cartesian basis functions of A2  symmetry.
 There are    13 symmetry adapted cartesian basis functions of B1  symmetry.
 There are    13 symmetry adapted cartesian basis functions of B2  symmetry.
 There are    25 symmetry adapted basis functions of A1  symmetry.
 There are     5 symmetry adapted basis functions of A2  symmetry.
 There are    12 symmetry adapted basis functions of B1  symmetry.
 There are    12 symmetry adapted basis functions of B2  symmetry.
    54 basis functions,   122 primitive gaussians,    61 cartesian basis functions
    18 alpha electrons       18 beta electrons
       nuclear repulsion energy        13.0301425074 Hartrees.
 NAtoms=    2 NActive=    2 NUniq=    2 SFac= 1.00D+00 NAtFMM=   60 NAOKFM=F Big=F
 Integral buffers will be    131072 words long.
 Raffenetti 2 integral format.
 Two-electron integral symmetry is turned on.
 One-electron integrals computed using PRISM.
   4 Symmetry operations used in ECPInt.
 ECPInt:  NShTT=     210 NPrTT=    1104 LenC2=     211 LenP2D=    1081.
 LDataN:  DoStor=T MaxTD1= 6 Len=  172
 NBasis=    54 RedAO= T EigKep=  1.84D-02  NBF=    25     5    12    12
 NBsUse=    54 1.00D-06 EigRej= -1.00D+00 NBFU=    25     5    12    12
 Initial guess from the checkpoint file:  "/home/svss/projects/Project-Philicity/GS/hydrocarbon/set-1/GS/mol_33_hc/mol_33_hc.chk"
 B after Tr=     0.000000    0.000000    0.000000
         Rot=    1.000000    0.000000    0.000000    0.000000 Ang=   0.00 deg.
 Initial guess orbital symmetries:
       Occupied  (SG) (SG) (SG) (PI) (PI) (SG) (SG) (PI) (PI) (SG)
                 (PI) (PI) (DLTA) (DLTA) (SG) (SG) (PI) (PI)
       Virtual   (SG) (SG) (PI) (PI) (SG) (PI) (PI) (DLTA) (DLTA)
                 (SG) (SG) (SG) (PI) (PI) (PI) (PI) (DLTA) (DLTA)
                 (DLTA) (DLTA) (PHI) (PHI) (SG) (PI) (PI) (SG)
                 (PI) (PI) (SG) (SG) (PI) (PI) (DLTA) (DLTA) (SG)
                 (SG)
 Keep R1 ints in memory in symmetry-blocked form, NReq=8195372.
 Requested convergence on RMS density matrix=1.00D-08 within 128 cycles.
 Requested convergence on MAX density matrix=1.00D-06.
 Requested convergence on             energy=1.00D-06.
 No special actions if energy rises.
 SCF Done:  E(RM062X) =  -2574.79061494     A.U. after    1 cycles
            NFock=  1  Conv=0.76D-09     -V/T= 2.0013
 DoSCS=F DFT=T ScalE2(SS,OS)=  1.000000  1.000000
 Range of M.O.s used for correlation:     1    54
 NBasis=    54 NAE=    18 NBE=    18 NFC=     0 NFV=     0
 NROrb=     54 NOA=    18 NOB=    18 NVA=    36 NVB=    36
   4 Symmetry operations used in ECPInt.
 ECPInt:  NShTT=     210 NPrTT=    1104 LenC2=     211 LenP2D=    1081.
 LDataN:  DoStor=T MaxTD1= 7 Len=  274
 Symmetrizing basis deriv contribution to polar:
 IMax=3 JMax=2 DiffMx= 0.00D+00
 G2DrvN: will do     3 centers at a time, making    1 passes.
 Calling FoFCou, ICntrl=  3107 FMM=F I1Cent=   0 AccDes= 0.00D+00.
 End of G2Drv F.D. properties file   721 does not exist.
 End of G2Drv F.D. properties file   722 does not exist.
 End of G2Drv F.D. properties file   788 does not exist.
          IDoAtm=11
          Differentiating once with respect to electric field.
                with respect to dipole field.
          Differentiating once with respect to nuclear coordinates.
 Keep R1 ints in memory in symmetry-blocked form, NReq=8169454.
          There are     9 degrees of freedom in the 1st order CPHF.  IDoFFX=6 NUNeed=     3.
      6 vectors produced by pass  0 Test12= 7.20D-15 1.11D-08 XBig12= 1.25D+01 2.75D+00.
 AX will form     6 AO Fock derivatives at one time.
      6 vectors produced by pass  1 Test12= 7.20D-15 1.11D-08 XBig12= 8.51D-01 5.22D-01.
      6 vectors produced by pass  2 Test12= 7.20D-15 1.11D-08 XBig12= 9.79D-03 3.22D-02.
      6 vectors produced by pass  3 Test12= 7.20D-15 1.11D-08 XBig12= 4.25D-04 5.30D-03.
      6 vectors produced by pass  4 Test12= 7.20D-15 1.11D-08 XBig12= 2.93D-06 5.81D-04.
      6 vectors produced by pass  5 Test12= 7.20D-15 1.11D-08 XBig12= 8.14D-09 3.36D-05.
      4 vectors produced by pass  6 Test12= 7.20D-15 1.11D-08 XBig12= 1.71D-11 1.32D-06.
      1 vectors produced by pass  7 Test12= 7.20D-15 1.11D-08 XBig12= 6.32D-14 8.35D-08.
 InvSVY:  IOpt=1 It=  1 EMax= 6.66D-16
 Solved reduced A of dimension    41 with     6 vectors.
 Isotropic polarizability for W=    0.000000       18.35 Bohr**3.
 End of Minotr F.D. properties file   721 does not exist.
 End of Minotr F.D. properties file   722 does not exist.
 End of Minotr F.D. properties file   788 does not exist.

 **********************************************************************

            Population analysis using the SCF Density.

 **********************************************************************

 Orbital symmetries:
       Occupied  (SG) (SG) (SG) (PI) (PI) (SG) (SG) (PI) (PI) (SG)
                 (PI) (PI) (DLTA) (DLTA) (SG) (SG) (PI) (PI)
       Virtual   (SG) (SG) (PI) (PI) (SG) (PI) (PI) (DLTA) (DLTA)
                 (SG) (SG) (SG) (PI) (PI) (PI) (PI) (DLTA) (DLTA)
                 (DLTA) (DLTA) (PHI) (PHI) (SG) (PI) (PI) (SG)
                 (PI) (PI) (SG) (SG) (PI) (PI) (DLTA) (DLTA) (SG)
                 (SG)
 The electronic state is 1-SG.
 Alpha  occ. eigenvalues -- -485.38123 -63.36715 -57.18640 -57.18415 -57.18415
 Alpha  occ. eigenvalues --   -9.03436  -6.85848  -6.84967  -6.84967  -2.89239
 Alpha  occ. eigenvalues --   -2.88879  -2.88879  -2.88079  -2.88079  -0.88003
 Alpha  occ. eigenvalues --   -0.50453  -0.36740  -0.36740
 Alpha virt. eigenvalues --    0.02662   0.19832   0.28490   0.28490   0.28498
 Alpha virt. eigenvalues --    0.30881   0.30881   0.34024   0.34025   0.55508
 Alpha virt. eigenvalues --    0.73962   1.28268   1.30013   1.30013   1.36164
 Alpha virt. eigenvalues --    1.36164   1.37687   1.37695   1.54902   1.54912
 Alpha virt. eigenvalues --    1.56899   1.56899   1.61270   1.62170   1.62170
 Alpha virt. eigenvalues --    1.72536   2.00854   2.00854   2.39318   2.80092
 Alpha virt. eigenvalues --    4.02595   4.02595   4.03488   4.03504   4.22774
 Alpha virt. eigenvalues --    7.38783
          Condensed to atoms (all electrons):
               1          2
     1  Br  34.894128   0.323711
     2  H    0.323711   0.458449
 Mulliken charges:
               1
     1  Br  -0.217840
     2  H    0.217840
 Sum of Mulliken charges =   0.00000
 Mulliken charges with hydrogens summed into heavy atoms:
               1
     1  Br   0.000000
 APT charges:
               1
     1  Br  -0.137614
     2  H    0.137614
 Sum of APT charges =   0.00000
 APT charges with hydrogens summed into heavy atoms:
               1
     1  Br   0.000000
 Electronic spatial extent (au):  <R**2>=             48.4444
 Charge=              0.0000 electrons
 Dipole moment (field-independent basis, Debye):
    X=              0.0000    Y=              0.0000    Z=             -0.9609  Tot=              0.9609
 Quadrupole moment (field-independent basis, Debye-Ang):
   XX=            -20.0178   YY=            -20.0178   ZZ=            -15.6888
   XY=              0.0000   XZ=              0.0000   YZ=              0.0000
 Traceless Quadrupole moment (field-independent basis, Debye-Ang):
   XX=             -1.4430   YY=             -1.4430   ZZ=              2.8860
   XY=              0.0000   XZ=              0.0000   YZ=              0.0000
 Octapole moment (field-independent basis, Debye-Ang**2):
  XXX=              0.0000  YYY=              0.0000  ZZZ=             -1.8237  XYY=              0.0000
  XXY=              0.0000  XXZ=              0.4082  XZZ=              0.0000  YZZ=              0.0000
  YYZ=              0.4082  XYZ=              0.0000
 Hexadecapole moment (field-independent basis, Debye-Ang**3):
 XXXX=            -24.8586 YYYY=            -24.8586 ZZZZ=            -20.5614 XXXY=              0.0000
 XXXZ=              0.0000 YYYX=              0.0000 YYYZ=              0.0000 ZZZX=              0.0000
 ZZZY=              0.0000 XXYY=             -8.2861 XXZZ=             -8.6065 YYZZ=             -8.6065
 XXYZ=              0.0000 YYXZ=              0.0000 ZZXY=              0.0000
 N-N= 1.303014250741D+01 E-N=-6.180427573905D+03  KE= 2.571526895102D+03
 Symmetry A1   KE= 1.862409107683D+03
 Symmetry A2   KE= 4.314925185616D+01
 Symmetry B1   KE= 3.329842677815D+02
 Symmetry B2   KE= 3.329842677815D+02
  Exact polarizability:      16.531       0.000      16.531       0.000       0.000      21.977
 Approx polarizability:      20.596      -0.000      20.596      -0.000      -0.000      29.834
   4 Symmetry operations used in ECPInt.
 ECPInt:  NShTT=     210 NPrTT=    1104 LenC2=     211 LenP2D=    1081.
 LDataN:  DoStor=T MaxTD1= 8 Len=  415
 Calling FoFJK, ICntrl=    100127 FMM=F ISym2X=1 I1Cent= 0 IOpClX= 0 NMat=1 NMatS=1 NMatT=0.
 Full mass-weighted force constant matrix:
 Low frequencies ---    0.0012    0.0129    0.0130  285.0311  285.0311 2678.1545
 Diagonal vibrational polarizability:
        0.0000000       0.0000000       0.0644023
 Harmonic frequencies (cm**-1), IR intensities (KM/Mole), Raman scattering
 activities (A**4/AMU), depolarization ratios for plane and unpolarized
 incident light, reduced masses (AMU), force constants (mDyne/A),
 and normal coordinates:
                      1
                     SG
 Frequencies --   2678.1545
 Red. masses --      1.0205
 Frc consts  --      4.3127
 IR Inten    --     17.1648
  Atom  AN      X      Y      Z
     1  35    -0.00  -0.00  -0.01
     2   1    -0.00  -0.00   1.00

 -------------------
 - Thermochemistry -
 -------------------
 Temperature   298.150 Kelvin.  Pressure   1.00000 Atm.
 Atom     1 has atomic number 35 and mass  78.91834
 Atom     2 has atomic number  1 and mass   1.00783
 Molecular mass:    79.92616 amu.
 Principal axes and moments of inertia in atomic units:
                           1         2         3
     Eigenvalues --     0.00000   7.17979   7.17979
           X            0.00000  -0.00000   1.00000
           Y            0.00000   1.00000   0.00000
           Z            1.00000   0.00000   0.00000
 This molecule is a prolate symmetric top.
 Rotational symmetry number  1.
 Rotational temperature (Kelvin)     12.06357
 Rotational constant (GHZ):         251.363993
 Zero-point vibrational energy      16018.9 (Joules/Mol)
                                    3.82861 (Kcal/Mol)
 Vibrational temperatures:   3853.27
          (Kelvin)
 
 Zero-point correction=                           0.006101 (Hartree/Particle)
 Thermal correction to Energy=                    0.008462
 Thermal correction to Enthalpy=                  0.009406
 Thermal correction to Gibbs Free Energy=        -0.013121
 Sum of electronic and zero-point Energies=          -2574.784514
 Sum of electronic and thermal Energies=             -2574.782153
 Sum of electronic and thermal Enthalpies=           -2574.781209
 Sum of electronic and thermal Free Energies=        -2574.803736
 
                     E (Thermal)             CV                S
                      KCal/Mol        Cal/Mol-Kelvin    Cal/Mol-Kelvin
 Total                    5.310              4.969             47.411
 Electronic               0.000              0.000              0.000
 Translational            0.889              2.981             39.050
 Rotational               0.592              1.987              8.361
 Vibrational              3.829              0.001              0.000
                       Q            Log10(Q)             Ln(Q)
 Total Bot       0.108406D+07          6.035054         13.896224
 Total V=0       0.694140D+09          8.841447         20.358185
 Vib (Bot)       0.156173D-02         -2.806393         -6.461958
 Vib (V=0)       0.100000D+01          0.000001          0.000002
 Electronic      0.100000D+01          0.000000          0.000000
 Translational   0.280858D+08          7.448487         17.150776
 Rotational      0.247149D+02          1.392959          3.207407
 ***** Axes restored to original set *****
 -------------------------------------------------------------------
 Center     Atomic                   Forces (Hartrees/Bohr)
 Number     Number              X              Y              Z
 -------------------------------------------------------------------
      1       35           0.000003025   -0.000000000   -0.000000000
      2        1          -0.000003025   -0.000000000   -0.000000000
 -------------------------------------------------------------------
 Cartesian Forces:  Max     0.000003025 RMS     0.000001747
 FormGI is forming the generalized inverse of G from B-inverse, IUseBI=4.

 GradGradGradGradGradGradGradGradGradGradGradGradGradGradGradGradGradGrad
 Berny optimization.
 Internal  Forces:  Max     0.000003025 RMS     0.000003025
 Search for a local minimum.
 Step number   1 out of a maximum of    2
 All quantities printed in internal units (Hartrees-Bohrs-Radians)
 Second derivative matrix not updated -- analytic derivatives used.
 The second derivative matrix:
                          R1
           R1           0.27011
 ITU=  0
     Eigenvalues ---    0.27011
 Angle between quadratic step and forces=   0.00 degrees.
 Linear search not attempted -- first point.
 Iteration  1 RMS(Cart)=  0.00000792 RMS(Int)=  0.00000000
 Iteration  2 RMS(Cart)=  0.00000000 RMS(Int)=  0.00000000
 ClnCor:  largest displacement from symmetrization is 0.00D+00 for atom     0.
 Variable       Old X    -DE/DX   Delta X   Delta X   Delta X     New X
                                 (Linear)    (Quad)   (Total)
    R1        2.68608   0.00000   0.00000   0.00001   0.00001   2.68609
         Item               Value     Threshold  Converged?
 Maximum Force            0.000003     0.000450     YES
 RMS     Force            0.000003     0.000300     YES
 Maximum Displacement     0.000006     0.001800     YES
 RMS     Displacement     0.000008     0.001200     YES
 Predicted change in Energy=-1.693997D-11
 Optimization completed.
    -- Stationary point found.
                           ----------------------------
                           !   Optimized Parameters   !
                           ! (Angstroms and Degrees)  !
 --------------------------                            --------------------------
 ! Name  Definition              Value          Derivative Info.                !
 --------------------------------------------------------------------------------
 ! R1    R(1,2)                  1.4214         -DE/DX =    0.0                 !
 --------------------------------------------------------------------------------
 GradGradGradGradGradGradGradGradGradGradGradGradGradGradGradGradGradGrad


 ----------------------------------------------------------------------

 Electric dipole moment (input orientation):
 (Debye = 10**-18 statcoulomb cm , SI units = C m)
                  (au)            (Debye)         (10**-30 SI)
   Tot        0.378031D+00      0.960860D+00      0.320508D+01
   x         -0.378031D+00     -0.960860D+00     -0.320508D+01
   y          0.000000D+00      0.000000D+00      0.000000D+00
   z          0.000000D+00      0.000000D+00      0.000000D+00

 Dipole polarizability, Alpha (input orientation).
 (esu units = cm**3 , SI units = C**2 m**2 J**-1)
 Alpha(0;0):
               (au)            (10**-24 esu)      (10**-40 SI)
   iso        0.183466D+02      0.271869D+01      0.302495D+01
   aniso      0.544587D+01      0.806995D+00      0.897903D+00
   xx         0.219772D+02      0.325668D+01      0.362355D+01
   yx         0.000000D+00      0.000000D+00      0.000000D+00
   yy         0.165313D+02      0.244969D+01      0.272565D+01
   zx         0.000000D+00      0.000000D+00      0.000000D+00
   zy         0.000000D+00      0.000000D+00      0.000000D+00
   zz         0.165313D+02      0.244969D+01      0.272565D+01

 ----------------------------------------------------------------------

 Dipole orientation:
    35          0.00000000          0.00000000         -0.05251748
     1         -0.00000000          0.00000000          2.63356212

 Electric dipole moment (dipole orientation):
 (Debye = 10**-18 statcoulomb cm , SI units = C m)
                  (au)            (Debye)         (10**-30 SI)
   Tot        0.378031D+00      0.960860D+00      0.320508D+01
   x          0.000000D+00      0.000000D+00      0.000000D+00
   y          0.000000D+00      0.000000D+00      0.000000D+00
   z          0.378031D+00      0.960860D+00      0.320508D+01

 Dipole polarizability, Alpha (dipole orientation).
 (esu units = cm**3 , SI units = C**2 m**2 J**-1)
 Alpha(0;0):
               (au)            (10**-24 esu)      (10**-40 SI)
   iso        0.183466D+02      0.271869D+01      0.302495D+01
   aniso      0.544587D+01      0.806995D+00      0.897903D+00
   xx         0.165313D+02      0.244969D+01      0.272565D+01
   yx         0.000000D+00      0.000000D+00      0.000000D+00
   yy         0.165313D+02      0.244969D+01      0.272565D+01
   zx         0.000000D+00      0.000000D+00      0.000000D+00
   zy         0.000000D+00      0.000000D+00      0.000000D+00
   zz         0.219772D+02      0.325668D+01      0.362355D+01

 ----------------------------------------------------------------------
 Unable to Open any file for archive entry.
 1\1\GINC-NODE12\Freq\RM062X\def2TZVP\Br1H1\SVSS\20-Jun-2022\0\\#N Geom
 =AllCheck Guess=TCheck SCRF=Check GenChk RM062X/def2TZVP Freq\\convert
 ed from /home/svss/projects/Project-Philicity/GS/hydrocarbon/set-1/GS/
 mol_33_hc/mol_33_hc_cregen_best.xyz\\0,1\Br,0.027791056,0.,0.\H,-1.393
 621056,0.,0.\\Version=AS64L-G16RevC.01\State=1-SG\HF=-2574.7906149\RMS
 D=7.600e-10\RMSF=1.747e-06\ZeroPoint=0.0061013\Thermal=0.0084618\ETot=
 -2574.7821532\HTot=-2574.781209\GTot=-2574.8037355\Dipole=-0.3780314,0
 .,0.\DipoleDeriv=-0.1323674,0.,0.,0.,-0.1402379,0.,0.,0.,-0.1402379,0.
 1323674,0.,0.,0.,0.1402379,0.,0.,0.,0.1402379\Polar=21.9771916,0.,16.5
 313196,0.,0.,16.5313196\Quadrupole=2.1456914,-1.0728457,-1.0728457,0.,
 0.,0.\PG=C*V [C*(H1Br1)]\NImag=0\\0.27010761,0.,0.00305950,0.,0.,0.003
 05950,-0.27010761,0.,0.,0.27010761,0.,-0.00305950,0.,0.,0.00305950,0.,
 0.,-0.00305950,0.,0.,0.00305950\\-0.00000303,0.,0.,0.00000303,0.,0.\\\
 @
 The archive entry for this job was punched.


 There are more things in heaven and earth, Horatio,
 than are dreamt of in your philosophy.
                   -- Hamlet, Act I, Scene 5
 Job cpu time:       0 days  0 hours  0 minutes 20.6 seconds.
 Elapsed time:       0 days  0 hours  0 minutes  3.8 seconds.
 File lengths (MBytes):  RWF=     17 Int=      0 D2E=      0 Chk=      2 Scr=      2
 Normal termination of Gaussian 16 at Mon Jun 20 20:15:23 2022.
