 Entering Gaussian System, Link 0=/opt/apps/Gaussian/G16C/g16/g16
 Input=/home/svss/projects/Project-Philicity/GS/hydrocarbon/set-1/GS/mol_27_hc/mol_27_hc.com
 Output=/home/svss/projects/Project-Philicity/GS/hydrocarbon/set-1/GS/mol_27_hc/mol_27_hc.log
 Initial command:
 /opt/apps/Gaussian/G16C/g16/l1.exe "/home/svss/projects/Project-Philicity/GS/hydrocarbon/set-1/Gau-257049.inp" -scrdir="/home/svss/projects/Project-Philicity/GS/hydrocarbon/set-1/"
 Entering Link 1 = /opt/apps/Gaussian/G16C/g16/l1.exe PID=    257050.
  
 Copyright (c) 1988-2019, Gaussian, Inc.  All Rights Reserved.
  
 This is part of the Gaussian(R) 16 program.  It is based on
 the Gaussian(R) 09 system (copyright 2009, Gaussian, Inc.),
 the Gaussian(R) 03 system (copyright 2003, Gaussian, Inc.),
 the Gaussian(R) 98 system (copyright 1998, Gaussian, Inc.),
 the Gaussian(R) 94 system (copyright 1995, Gaussian, Inc.),
 the Gaussian 92(TM) system (copyright 1992, Gaussian, Inc.),
 the Gaussian 90(TM) system (copyright 1990, Gaussian, Inc.),
 the Gaussian 88(TM) system (copyright 1988, Gaussian, Inc.),
 the Gaussian 86(TM) system (copyright 1986, Carnegie Mellon
 University), and the Gaussian 82(TM) system (copyright 1983,
 Carnegie Mellon University). Gaussian is a federally registered
 trademark of Gaussian, Inc.
  
 This software contains proprietary and confidential information,
 including trade secrets, belonging to Gaussian, Inc.
  
 This software is provided under written license and may be
 used, copied, transmitted, or stored only in accord with that
 written license.
  
 The following legend is applicable only to US Government
 contracts under FAR:
  
                    RESTRICTED RIGHTS LEGEND
  
 Use, reproduction and disclosure by the US Government is
 subject to restrictions as set forth in subparagraphs (a)
 and (c) of the Commercial Computer Software - Restricted
 Rights clause in FAR 52.227-19.
  
 Gaussian, Inc.
 340 Quinnipiac St., Bldg. 40, Wallingford CT 06492
  
  
 ---------------------------------------------------------------
 Warning -- This program may not be used in any manner that
 competes with the business of Gaussian, Inc. or will provide
 assistance to any competitor of Gaussian, Inc.  The licensee
 of this program is prohibited from giving any competitor of
 Gaussian, Inc. access to this program.  By using this program,
 the user acknowledges that Gaussian, Inc. is engaged in the
 business of creating and licensing software in the field of
 computational chemistry and represents and warrants to the
 licensee that it is not a competitor of Gaussian, Inc. and that
 it will not use this program in any manner prohibited above.
 ---------------------------------------------------------------
  

 Cite this work as:
 Gaussian 16, Revision C.01,
 M. J. Frisch, G. W. Trucks, H. B. Schlegel, G. E. Scuseria, 
 M. A. Robb, J. R. Cheeseman, G. Scalmani, V. Barone, 
 G. A. Petersson, H. Nakatsuji, X. Li, M. Caricato, A. V. Marenich, 
 J. Bloino, B. G. Janesko, R. Gomperts, B. Mennucci, H. P. Hratchian, 
 J. V. Ortiz, A. F. Izmaylov, J. L. Sonnenberg, D. Williams-Young, 
 F. Ding, F. Lipparini, F. Egidi, J. Goings, B. Peng, A. Petrone, 
 T. Henderson, D. Ranasinghe, V. G. Zakrzewski, J. Gao, N. Rega, 
 G. Zheng, W. Liang, M. Hada, M. Ehara, K. Toyota, R. Fukuda, 
 J. Hasegawa, M. Ishida, T. Nakajima, Y. Honda, O. Kitao, H. Nakai, 
 T. Vreven, K. Throssell, J. A. Montgomery, Jr., J. E. Peralta, 
 F. Ogliaro, M. J. Bearpark, J. J. Heyd, E. N. Brothers, K. N. Kudin, 
 V. N. Staroverov, T. A. Keith, R. Kobayashi, J. Normand, 
 K. Raghavachari, A. P. Rendell, J. C. Burant, S. S. Iyengar, 
 J. Tomasi, M. Cossi, J. M. Millam, M. Klene, C. Adamo, R. Cammi, 
 J. W. Ochterski, R. L. Martin, K. Morokuma, O. Farkas, 
 J. B. Foresman, and D. J. Fox, Gaussian, Inc., Wallingford CT, 2019.
 
 ******************************************
 Gaussian 16:  AS64L-G16RevC.01  3-Jul-2019
                20-Jun-2022 
 ******************************************
 %nproc=8
 Will use up to    8 processors via shared memory.
 %mem=96GB
 %chk=/home/svss/projects/Project-Philicity/GS/hydrocarbon/set-1/GS/mol_27_hc/mol
 _27_hc.chk
 -------------------------
 # opt freq M062X/def2tzvp
 -------------------------
 1/18=20,19=15,26=3,38=1/1,3;
 2/9=110,12=2,17=6,18=5,40=1/2;
 3/5=44,7=101,11=2,25=1,30=1,71=1,74=-55/1,2,3;
 4//1;
 5/5=2,38=5/2;
 6/7=2,8=2,9=2,10=2,28=1/1;
 7//1,2,3,16;
 1/18=20,19=15,26=3/3(2);
 2/9=110/2;
 99//99;
 2/9=110/2;
 3/5=44,7=101,11=2,25=1,30=1,71=1,74=-55/1,2,3;
 4/5=5,16=3,69=1/1;
 5/5=2,38=5/2;
 7//1,2,3,16;
 1/18=20,19=15,26=3/3(-5);
 2/9=110/2;
 6/7=2,8=2,9=2,10=2,19=2,28=1/1;
 99/9=1/99;
 ----------------------------------------------------------------------
 converted from /home/svss/projects/Project-Philicity/GS/hydrocarbon/se
 t-1/GS/mol_27_hc/mol_27_hc_cregen_best.xyz
 ----------------------------------------------------------------------
 Symbolic Z-matrix:
 Charge =  0 Multiplicity = 1
 O                     2.27479  -0.05815   0. 
 C                     0.91442  -0.00615   0.00001 
 C                     0.22232   1.19873   0. 
 C                    -1.16124   1.20158   0. 
 C                    -1.86209   0.00879   0. 
 C                    -1.17095  -1.19225   0. 
 C                     0.20993  -1.2061    0. 
 H                     2.63574   0.83656  -0.00001 
 H                     0.76991   2.13272   0.00001 
 H                    -1.6911    2.14278   0.00003 
 H                    -2.94143   0.01447   0.00002 
 H                    -1.71203  -2.12677   0.00001 
 H                     0.76351  -2.13158  -0.00001 
 

 GradGradGradGradGradGradGradGradGradGradGradGradGradGradGradGradGradGrad
 Berny optimization.
 Initialization pass.
                           ----------------------------
                           !    Initial Parameters    !
                           ! (Angstroms and Degrees)  !
 --------------------------                            --------------------------
 ! Name  Definition              Value          Derivative Info.                !
 --------------------------------------------------------------------------------
 ! R1    R(1,2)                  1.3614         estimate D2E/DX2                !
 ! R2    R(1,8)                  0.9648         estimate D2E/DX2                !
 ! R3    R(2,3)                  1.3895         estimate D2E/DX2                !
 ! R4    R(2,7)                  1.3915         estimate D2E/DX2                !
 ! R5    R(3,4)                  1.3836         estimate D2E/DX2                !
 ! R6    R(3,9)                  1.0827         estimate D2E/DX2                !
 ! R7    R(4,5)                  1.3835         estimate D2E/DX2                !
 ! R8    R(4,10)                 1.0801         estimate D2E/DX2                !
 ! R9    R(5,6)                  1.3857         estimate D2E/DX2                !
 ! R10   R(5,11)                 1.0794         estimate D2E/DX2                !
 ! R11   R(6,7)                  1.3809         estimate D2E/DX2                !
 ! R12   R(6,12)                 1.0799         estimate D2E/DX2                !
 ! R13   R(7,13)                 1.0784         estimate D2E/DX2                !
 ! A1    A(2,1,8)              109.7814         estimate D2E/DX2                !
 ! A2    A(1,2,3)              122.0627         estimate D2E/DX2                !
 ! A3    A(1,2,7)              118.2281         estimate D2E/DX2                !
 ! A4    A(3,2,7)              119.7092         estimate D2E/DX2                !
 ! A5    A(2,3,4)              119.9917         estimate D2E/DX2                !
 ! A6    A(2,3,9)              119.7436         estimate D2E/DX2                !
 ! A7    A(4,3,9)              120.2647         estimate D2E/DX2                !
 ! A8    A(3,4,5)              120.3193         estimate D2E/DX2                !
 ! A9    A(3,4,10)             119.4959         estimate D2E/DX2                !
 ! A10   A(5,4,10)             120.1848         estimate D2E/DX2                !
 ! A11   A(4,5,6)              119.6444         estimate D2E/DX2                !
 ! A12   A(4,5,11)             120.1358         estimate D2E/DX2                !
 ! A13   A(6,5,11)             120.2198         estimate D2E/DX2                !
 ! A14   A(5,6,7)              120.493          estimate D2E/DX2                !
 ! A15   A(5,6,12)             120.0112         estimate D2E/DX2                !
 ! A16   A(7,6,12)             119.4959         estimate D2E/DX2                !
 ! A17   A(2,7,6)              119.8425         estimate D2E/DX2                !
 ! A18   A(2,7,13)             118.6969         estimate D2E/DX2                !
 ! A19   A(6,7,13)             121.4606         estimate D2E/DX2                !
 ! D1    D(8,1,2,3)              0.0003         estimate D2E/DX2                !
 ! D2    D(8,1,2,7)            179.9988         estimate D2E/DX2                !
 ! D3    D(1,2,3,4)            179.9995         estimate D2E/DX2                !
 ! D4    D(1,2,3,9)             -0.0016         estimate D2E/DX2                !
 ! D5    D(7,2,3,4)              0.0009         estimate D2E/DX2                !
 ! D6    D(7,2,3,9)            179.9999         estimate D2E/DX2                !
 ! D7    D(1,2,7,6)           -179.9995         estimate D2E/DX2                !
 ! D8    D(1,2,7,13)             0.0003         estimate D2E/DX2                !
 ! D9    D(3,2,7,6)             -0.0009         estimate D2E/DX2                !
 ! D10   D(3,2,7,13)           179.9989         estimate D2E/DX2                !
 ! D11   D(2,3,4,5)             -0.0005         estimate D2E/DX2                !
 ! D12   D(2,3,4,10)           179.9977         estimate D2E/DX2                !
 ! D13   D(9,3,4,5)           -179.9994         estimate D2E/DX2                !
 ! D14   D(9,3,4,10)            -0.0012         estimate D2E/DX2                !
 ! D15   D(3,4,5,6)              0.0            estimate D2E/DX2                !
 ! D16   D(3,4,5,11)           179.9988         estimate D2E/DX2                !
 ! D17   D(10,4,5,6)          -179.9982         estimate D2E/DX2                !
 ! D18   D(10,4,5,11)            0.0006         estimate D2E/DX2                !
 ! D19   D(4,5,6,7)              0.0            estimate D2E/DX2                !
 ! D20   D(4,5,6,12)           179.9994         estimate D2E/DX2                !
 ! D21   D(11,5,6,7)          -179.9988         estimate D2E/DX2                !
 ! D22   D(11,5,6,12)            0.0006         estimate D2E/DX2                !
 ! D23   D(5,6,7,2)              0.0005         estimate D2E/DX2                !
 ! D24   D(5,6,7,13)          -179.9994         estimate D2E/DX2                !
 ! D25   D(12,6,7,2)          -179.9989         estimate D2E/DX2                !
 ! D26   D(12,6,7,13)            0.0012         estimate D2E/DX2                !
 --------------------------------------------------------------------------------
 Trust Radius=3.00D-01 FncErr=1.00D-07 GrdErr=1.00D-06 EigMax=2.50D+02 EigMin=1.00D-04
 Number of steps in this run=     68 maximum allowed number of steps=    100.
 GradGradGradGradGradGradGradGradGradGradGradGradGradGradGradGradGradGrad

                          Input orientation:                          
 ---------------------------------------------------------------------
 Center     Atomic      Atomic             Coordinates (Angstroms)
 Number     Number       Type             X           Y           Z
 ---------------------------------------------------------------------
      1          8           0        2.274790   -0.058150    0.000000
      2          6           0        0.914420   -0.006150    0.000010
      3          6           0        0.222320    1.198730    0.000000
      4          6           0       -1.161240    1.201580    0.000000
      5          6           0       -1.862090    0.008790    0.000000
      6          6           0       -1.170950   -1.192250    0.000000
      7          6           0        0.209930   -1.206100    0.000000
      8          1           0        2.635740    0.836560   -0.000010
      9          1           0        0.769910    2.132720    0.000010
     10          1           0       -1.691100    2.142780    0.000030
     11          1           0       -2.941430    0.014470    0.000020
     12          1           0       -1.712030   -2.126770    0.000010
     13          1           0        0.763510   -2.131580   -0.000010
 ---------------------------------------------------------------------
                    Distance matrix (angstroms):
                    1          2          3          4          5
     1  O    0.000000
     2  C    1.361363   0.000000
     3  C    2.406736   1.389510   0.000000
     4  C    3.659675   2.401453   1.383563   0.000000
     5  C    4.137422   2.776550   2.400150   1.383452   0.000000
     6  C    3.627576   2.399083   2.767307   2.393850   1.385703
     7  C    2.362506   1.391469   2.404862   2.770745   2.401921
     8  H    0.964775   1.916534   2.440443   3.814485   4.573366
     9  H    2.657927   2.143746   1.082678   2.143913   3.382086
    10  H    4.535678   3.377371   2.133637   1.080097   2.140829
    11  H    5.216725   3.855905   3.378133   2.139698   1.079355
    12  H    4.491539   3.375688   3.847163   3.373616   2.140826
    13  H    2.565751   2.130781   3.373996   3.848976   3.387471
                    6          7          8          9         10
     6  C    0.000000
     7  C    1.380949   0.000000
     8  H    4.313578   3.171280   0.000000
     9  H    3.849982   3.385454   2.271861   0.000000
    10  H    3.375349   3.850833   4.519707   2.461031   0.000000
    11  H    2.142609   3.379476   5.637434   4.273292   2.468406
    12  H    1.079859   2.131094   5.261599   4.929836   4.269601
    13  H    2.150460   1.078408   3.509288   4.264305   4.929023
                   11         12         13
    11  H    0.000000
    12  H    2.469075   0.000000
    13  H    4.281601   2.475545   0.000000
 Stoichiometry    C6H6O
 Framework group  C1[X(C6H6O)]
 Deg. of freedom    33
 Full point group                 C1      NOp   1
 Largest Abelian subgroup         C1      NOp   1
 Largest concise Abelian subgroup C1      NOp   1
                         Standard orientation:                         
 ---------------------------------------------------------------------
 Center     Atomic      Atomic             Coordinates (Angstroms)
 Number     Number       Type             X           Y           Z
 ---------------------------------------------------------------------
      1          8           0        2.294179   -0.114117   -0.000002
      2          6           0        0.935171   -0.034062    0.000008
      3          6           0        0.268076    1.184840   -0.000002
      4          6           0       -1.115131    1.216233   -0.000002
      5          6           0       -1.840440    0.038156   -0.000002
      6          6           0       -1.174225   -1.176887   -0.000002
      7          6           0        0.206075   -1.219223   -0.000002
      8          1           0        2.673511    0.772956   -0.000012
      9          1           0        0.834819    2.107334    0.000008
     10          1           0       -1.625460    2.168165    0.000028
     11          1           0       -2.919433    0.066103    0.000018
     12          1           0       -1.734470   -2.100045    0.000008
     13          1           0        0.740444   -2.155926   -0.000012
 ---------------------------------------------------------------------
 Rotational constants (GHZ):           5.7303843           2.6472054           1.8107242
 Standard basis: def2TZVP (5D, 7F)
 There are   288 symmetry adapted cartesian basis functions of A   symmetry.
 There are   253 symmetry adapted basis functions of A   symmetry.
   253 basis functions,   405 primitive gaussians,   288 cartesian basis functions
    25 alpha electrons       25 beta electrons
       nuclear repulsion energy       272.6302485219 Hartrees.
 NAtoms=   13 NActive=   13 NUniq=   13 SFac= 1.00D+00 NAtFMM=   60 NAOKFM=F Big=F
 Integral buffers will be    131072 words long.
 Raffenetti 2 integral format.
 Two-electron integral symmetry is turned on.
 One-electron integrals computed using PRISM.
   1 Symmetry operations used in ECPInt.
 ECPInt:  NShTT=    5151 NPrTT=   15748 LenC2=    5093 LenP2D=   12859.
 LDataN:  DoStor=T MaxTD1= 6 Len=  172
 NBasis=   253 RedAO= T EigKep=  1.00D-05  NBF=   253
 NBsUse=   253 1.00D-06 EigRej= -1.00D+00 NBFU=   253
 ExpMin= 9.52D-02 ExpMax= 2.70D+04 ExpMxC= 9.22D+02 IAcc=3 IRadAn=         5 AccDes= 0.00D+00
 Harris functional with IExCor= 1009 and IRadAn=       5 diagonalized for initial guess.
 HarFok:  IExCor= 1009 AccDes= 0.00D+00 IRadAn=         5 IDoV= 1 UseB2=F ITyADJ=14
 ICtDFT=  3500011 ScaDFX=  1.000000  1.000000  1.000000  1.000000
 FoFCou: FMM=F IPFlag=           0 FMFlag=      100000 FMFlg1=           0
         NFxFlg=           0 DoJE=T BraDBF=F KetDBF=T FulRan=T
         wScrn=  0.000000 ICntrl=       500 IOpCl=  0 I1Cent=   200000004 NGrid=           0
         NMat0=    1 NMatS0=      1 NMatT0=    0 NMatD0=    1 NMtDS0=    0 NMtDT0=    0
 Petite list used in FoFCou.
 Requested convergence on RMS density matrix=1.00D-08 within 128 cycles.
 Requested convergence on MAX density matrix=1.00D-06.
 Requested convergence on             energy=1.00D-06.
 No special actions if energy rises.
 Integral accuracy reduced to 1.0D-05 until final iterations.
 Initial convergence to 1.0D-05 achieved.  Increase integral accuracy.
 SCF Done:  E(RM062X) =  -307.457164342     A.U. after   14 cycles
            NFock= 14  Conv=0.46D-08     -V/T= 2.0046

 **********************************************************************

            Population analysis using the SCF Density.

 **********************************************************************

 Orbital symmetries:
       Occupied  (A) (A) (A) (A) (A) (A) (A) (A) (A) (A) (A) (A)
                 (A) (A) (A) (A) (A) (A) (A) (A) (A) (A) (A) (A)
                 (A)
       Virtual   (A) (A) (A) (A) (A) (A) (A) (A) (A) (A) (A) (A)
                 (A) (A) (A) (A) (A) (A) (A) (A) (A) (A) (A) (A)
                 (A) (A) (A) (A) (A) (A) (A) (A) (A) (A) (A) (A)
                 (A) (A) (A) (A) (A) (A) (A) (A) (A) (A) (A) (A)
                 (A) (A) (A) (A) (A) (A) (A) (A) (A) (A) (A) (A)
                 (A) (A) (A) (A) (A) (A) (A) (A) (A) (A) (A) (A)
                 (A) (A) (A) (A) (A) (A) (A) (A) (A) (A) (A) (A)
                 (A) (A) (A) (A) (A) (A) (A) (A) (A) (A) (A) (A)
                 (A) (A) (A) (A) (A) (A) (A) (A) (A) (A) (A) (A)
                 (A) (A) (A) (A) (A) (A) (A) (A) (A) (A) (A) (A)
                 (A) (A) (A) (A) (A) (A) (A) (A) (A) (A) (A) (A)
                 (A) (A) (A) (A) (A) (A) (A) (A) (A) (A) (A) (A)
                 (A) (A) (A) (A) (A) (A) (A) (A) (A) (A) (A) (A)
                 (A) (A) (A) (A) (A) (A) (A) (A) (A) (A) (A) (A)
                 (A) (A) (A) (A) (A) (A) (A) (A) (A) (A) (A) (A)
                 (A) (A) (A) (A) (A) (A) (A) (A) (A) (A) (A) (A)
                 (A) (A) (A) (A) (A) (A) (A) (A) (A) (A) (A) (A)
                 (A) (A) (A) (A) (A) (A) (A) (A) (A) (A) (A) (A)
                 (A) (A) (A) (A) (A) (A) (A) (A) (A) (A) (A) (A)
 The electronic state is 1-A.
 Alpha  occ. eigenvalues --  -19.65695 -10.60447 -10.54377 -10.54198 -10.54121
 Alpha  occ. eigenvalues --  -10.53579 -10.53304  -1.18855  -0.96089  -0.85007
 Alpha  occ. eigenvalues --   -0.83738  -0.71236  -0.68939  -0.62597  -0.57722
 Alpha  occ. eigenvalues --   -0.54361  -0.50912  -0.49747  -0.49326  -0.46652
 Alpha  occ. eigenvalues --   -0.42371  -0.41581  -0.40149  -0.31338  -0.28238
 Alpha virt. eigenvalues --    0.02072   0.03799   0.06020   0.08601   0.11119
 Alpha virt. eigenvalues --    0.12432   0.14258   0.15276   0.16764   0.19674
 Alpha virt. eigenvalues --    0.22240   0.23073   0.24245   0.24909   0.26127
 Alpha virt. eigenvalues --    0.27325   0.28134   0.28967   0.29368   0.31613
 Alpha virt. eigenvalues --    0.35993   0.36302   0.36721   0.37229   0.39085
 Alpha virt. eigenvalues --    0.39597   0.41085   0.42992   0.44190   0.44420
 Alpha virt. eigenvalues --    0.45378   0.46874   0.48548   0.49634   0.50342
 Alpha virt. eigenvalues --    0.52225   0.52581   0.53735   0.54270   0.55036
 Alpha virt. eigenvalues --    0.60156   0.61234   0.67303   0.68350   0.68802
 Alpha virt. eigenvalues --    0.72305   0.74464   0.75710   0.77130   0.78798
 Alpha virt. eigenvalues --    0.79259   0.81392   0.86138   0.87443   0.88019
 Alpha virt. eigenvalues --    0.90789   0.91816   0.92111   0.93357   1.03769
 Alpha virt. eigenvalues --    1.04540   1.06160   1.08108   1.11273   1.11294
 Alpha virt. eigenvalues --    1.18589   1.19443   1.21606   1.23221   1.23832
 Alpha virt. eigenvalues --    1.25717   1.26889   1.30284   1.33135   1.37027
 Alpha virt. eigenvalues --    1.38127   1.42508   1.44591   1.44889   1.49470
 Alpha virt. eigenvalues --    1.50066   1.54426   1.54681   1.54957   1.59949
 Alpha virt. eigenvalues --    1.63132   1.65063   1.65297   1.71459   1.72574
 Alpha virt. eigenvalues --    1.72885   1.74765   1.75187   1.77774   1.78996
 Alpha virt. eigenvalues --    1.81507   1.87513   1.89457   1.92937   1.94621
 Alpha virt. eigenvalues --    1.96066   2.04846   2.06462   2.06881   2.09370
 Alpha virt. eigenvalues --    2.12151   2.16844   2.18264   2.18358   2.22485
 Alpha virt. eigenvalues --    2.24717   2.26972   2.29519   2.33930   2.38460
 Alpha virt. eigenvalues --    2.43302   2.47671   2.49985   2.52525   2.55273
 Alpha virt. eigenvalues --    2.59198   2.60473   2.61241   2.64401   2.66535
 Alpha virt. eigenvalues --    2.68948   2.69672   2.69760   2.70536   2.73484
 Alpha virt. eigenvalues --    2.74248   2.76978   2.77393   2.77732   2.81338
 Alpha virt. eigenvalues --    2.83850   2.83862   2.85899   2.87805   2.89322
 Alpha virt. eigenvalues --    2.92050   2.92545   2.96340   3.03311   3.04310
 Alpha virt. eigenvalues --    3.04413   3.08716   3.09851   3.11054   3.14898
 Alpha virt. eigenvalues --    3.15260   3.16824   3.20029   3.22321   3.22517
 Alpha virt. eigenvalues --    3.23390   3.24119   3.25466   3.31616   3.31813
 Alpha virt. eigenvalues --    3.35572   3.38787   3.40769   3.41618   3.44107
 Alpha virt. eigenvalues --    3.44959   3.47655   3.50527   3.51665   3.52575
 Alpha virt. eigenvalues --    3.53101   3.59242   3.63240   3.68868   3.74237
 Alpha virt. eigenvalues --    3.76706   3.77094   3.83300   3.92101   3.96896
 Alpha virt. eigenvalues --    4.01033   4.04302   4.05609   4.08991   4.09506
 Alpha virt. eigenvalues --    4.14779   4.16132   4.18303   4.18348   4.20173
 Alpha virt. eigenvalues --    4.25691   4.27068   4.28416   4.34785   4.49347
 Alpha virt. eigenvalues --    4.55546   4.60007   4.62143   4.64492   4.76090
 Alpha virt. eigenvalues --    4.79608   4.80700   4.87050   5.10030   5.14430
 Alpha virt. eigenvalues --    5.18946   5.22681   5.27749   5.34919   5.45373
 Alpha virt. eigenvalues --    5.48937   5.55715   5.78553   5.97973   6.28919
 Alpha virt. eigenvalues --    6.35975   6.41826   6.70518   6.77868   6.96178
 Alpha virt. eigenvalues --    7.24353  22.09390  22.71886  22.72795  22.82204
 Alpha virt. eigenvalues --   22.92968  23.34354  44.06674
          Condensed to atoms (all electrons):
               1          2          3          4          5          6
     1  O    7.919808   0.331728  -0.088374   0.010393   0.001033  -0.000582
     2  C    0.331728   4.574361   0.505062  -0.011429  -0.040440  -0.052320
     3  C   -0.088374   0.505062   5.196724   0.364464  -0.034933  -0.054485
     4  C    0.010393  -0.011429   0.364464   4.999011   0.514090  -0.034052
     5  C    0.001033  -0.040440  -0.034933   0.514090   4.906465   0.526432
     6  C   -0.000582  -0.052320  -0.054485  -0.034052   0.526432   4.851771
     7  C   -0.052034   0.550021  -0.057473  -0.043334  -0.061775   0.537746
     8  H    0.308315  -0.041311  -0.015114   0.006681  -0.000732  -0.000007
     9  H   -0.004097  -0.041118   0.394284  -0.007135   0.001033   0.001193
    10  H   -0.000172  -0.000561  -0.018014   0.393559  -0.025467   0.001844
    11  H    0.000020  -0.000074   0.006793  -0.036444   0.412096  -0.034952
    12  H   -0.000138   0.006712  -0.001624   0.006136  -0.037518   0.416051
    13  H    0.004084  -0.031644   0.009833  -0.003135   0.006089  -0.033148
               7          8          9         10         11         12
     1  O   -0.052034   0.308315  -0.004097  -0.000172   0.000020  -0.000138
     2  C    0.550021  -0.041311  -0.041118  -0.000561  -0.000074   0.006712
     3  C   -0.057473  -0.015114   0.394284  -0.018014   0.006793  -0.001624
     4  C   -0.043334   0.006681  -0.007135   0.393559  -0.036444   0.006136
     5  C   -0.061775  -0.000732   0.001033  -0.025467   0.412096  -0.037518
     6  C    0.537746  -0.000007   0.001193   0.001844  -0.034952   0.416051
     7  C    4.942382   0.007495   0.003548   0.001393   0.004067  -0.039044
     8  H    0.007495   0.411120   0.002751  -0.000035  -0.000009   0.000037
     9  H    0.003548   0.002751   0.519191  -0.003505  -0.000281   0.000074
    10  H    0.001393  -0.000035  -0.003505   0.511606  -0.003555  -0.000314
    11  H    0.004067  -0.000009  -0.000281  -0.003555   0.516950  -0.004133
    12  H   -0.039044   0.000037   0.000074  -0.000314  -0.004133   0.516527
    13  H    0.402664  -0.000849  -0.000296   0.000090  -0.000185  -0.005368
              13
     1  O    0.004084
     2  C   -0.031644
     3  C    0.009833
     4  C   -0.003135
     5  C    0.006089
     6  C   -0.033148
     7  C    0.402664
     8  H   -0.000849
     9  H   -0.000296
    10  H    0.000090
    11  H   -0.000185
    12  H   -0.005368
    13  H    0.500870
 Mulliken charges:
               1
     1  O   -0.429983
     2  C    0.251012
     3  C   -0.207145
     4  C   -0.158806
     5  C   -0.166375
     6  C   -0.125492
     7  C   -0.195657
     8  H    0.321658
     9  H    0.134357
    10  H    0.143130
    11  H    0.139705
    12  H    0.142601
    13  H    0.150994
 Sum of Mulliken charges =  -0.00000
 Mulliken charges with hydrogens summed into heavy atoms:
               1
     1  O   -0.108325
     2  C    0.251012
     3  C   -0.072788
     4  C   -0.015675
     5  C   -0.026670
     6  C    0.017110
     7  C   -0.044663
 Electronic spatial extent (au):  <R**2>=            659.6155
 Charge=             -0.0000 electrons
 Dipole moment (field-independent basis, Debye):
    X=             -0.0215    Y=              1.3448    Z=              0.0000  Tot=              1.3449
 Quadrupole moment (field-independent basis, Debye-Ang):
   XX=            -37.4287   YY=            -35.5819   ZZ=            -45.1417
   XY=              4.4572   XZ=             -0.0002   YZ=              0.0001
 Traceless Quadrupole moment (field-independent basis, Debye-Ang):
   XX=              1.9554   YY=              3.8022   ZZ=             -5.7576
   XY=              4.4572   XZ=             -0.0002   YZ=              0.0001
 Octapole moment (field-independent basis, Debye-Ang**2):
  XXX=              8.6466  YYY=              0.2746  ZZZ=              0.0000  XYY=              4.8550
  XXY=             12.7906  XXZ=              0.0001  XZZ=              5.7959  YZZ=             -0.0412
  YYZ=              0.0001  XYZ=             -0.0001
 Hexadecapole moment (field-independent basis, Debye-Ang**3):
 XXXX=           -476.2816 YYYY=           -271.8943 ZZZZ=            -50.9336 XXXY=             37.5579
 XXXZ=             -0.0011 YYYX=              3.0507 YYYZ=              0.0003 ZZZX=              0.0001
 ZZZY=             -0.0001 XXYY=           -118.1672 XXZZ=           -103.5155 YYZZ=            -65.0311
 XXYZ=             -0.0001 YYXZ=             -0.0003 ZZXY=              0.5890
 N-N= 2.726302485219D+02 E-N=-1.261507126960D+03  KE= 3.060639602555D+02
   1 Symmetry operations used in ECPInt.
 ECPInt:  NShTT=    5151 NPrTT=   15748 LenC2=    5093 LenP2D=   12859.
 LDataN:  DoStor=T MaxTD1= 7 Len=  274
 Calling FoFJK, ICntrl=      2127 FMM=F ISym2X=0 I1Cent= 0 IOpClX= 0 NMat=1 NMatS=1 NMatT=0.
 ***** Axes restored to original set *****
 -------------------------------------------------------------------
 Center     Atomic                   Forces (Hartrees/Bohr)
 Number     Number              X              Y              Z
 -------------------------------------------------------------------
      1        8           0.000439307    0.000466661    0.000000762
      2        6          -0.001818307    0.001388842   -0.000003706
      3        6           0.003171430    0.000420603    0.000001570
      4        6          -0.000817758    0.000076589    0.000001808
      5        6          -0.004082313    0.000569167    0.000001113
      6        6          -0.000071008    0.000211931    0.000000293
      7        6           0.005532920    0.000779048    0.000000362
      8        1          -0.001586523   -0.002719365    0.000000160
      9        1           0.000834244    0.001156377   -0.000000259
     10        1          -0.000693342    0.001369692   -0.000001375
     11        1          -0.001604079   -0.000016654   -0.000000616
     12        1          -0.000663624   -0.001581548   -0.000000565
     13        1           0.001359053   -0.002121342    0.000000454
 -------------------------------------------------------------------
 Cartesian Forces:  Max     0.005532920 RMS     0.001527347

 GradGradGradGradGradGradGradGradGradGradGradGradGradGradGradGradGradGrad
 Berny optimization.
 FormGI is forming the generalized inverse of G from B-inverse, IUseBI=4.
 Internal  Forces:  Max     0.004020926 RMS     0.001396169
 Search for a local minimum.
 Step number   1 out of a maximum of   68
 All quantities printed in internal units (Hartrees-Bohrs-Radians)
 Mixed Optimization -- RFO/linear search
 Second derivative matrix not updated -- first step.
 ITU=  0
     Eigenvalues ---    0.02203   0.02213   0.02231   0.02263   0.02273
     Eigenvalues ---    0.02290   0.02294   0.02303   0.02307   0.02316
     Eigenvalues ---    0.16000   0.16000   0.16000   0.16000   0.16000
     Eigenvalues ---    0.16000   0.22000   0.22000   0.23482   0.25000
     Eigenvalues ---    0.35673   0.35983   0.36011   0.36072   0.36187
     Eigenvalues ---    0.43284   0.43562   0.47501   0.47782   0.48366
     Eigenvalues ---    0.48746   0.52673   0.54459
 RFO step:  Lambda=-3.00039497D-04 EMin= 2.20286742D-02
 Linear search not attempted -- first point.
 Iteration  1 RMS(Cart)=  0.00661826 RMS(Int)=  0.00001535
 Iteration  2 RMS(Cart)=  0.00002208 RMS(Int)=  0.00000064
 Iteration  3 RMS(Cart)=  0.00000000 RMS(Int)=  0.00000064
 Variable       Old X    -DE/DX   Delta X   Delta X   Delta X     New X
                                 (Linear)    (Quad)   (Total)
    R1        2.57260  -0.00106   0.00000  -0.00201  -0.00201   2.57059
    R2        1.82316  -0.00312   0.00000  -0.00572  -0.00572   1.81744
    R3        2.62579   0.00087   0.00000   0.00151   0.00151   2.62731
    R4        2.62950  -0.00140   0.00000  -0.00336  -0.00336   2.62614
    R5        2.61456   0.00402   0.00000   0.00835   0.00835   2.62291
    R6        2.04597   0.00142   0.00000   0.00398   0.00398   2.04994
    R7        2.61434   0.00302   0.00000   0.00660   0.00661   2.62095
    R8        2.04109   0.00153   0.00000   0.00426   0.00426   2.04535
    R9        2.61860   0.00382   0.00000   0.00826   0.00826   2.62686
   R10        2.03969   0.00160   0.00000   0.00444   0.00444   2.04413
   R11        2.60962   0.00392   0.00000   0.00796   0.00795   2.61757
   R12        2.04064   0.00170   0.00000   0.00472   0.00472   2.04536
   R13        2.03790   0.00252   0.00000   0.00695   0.00695   2.04485
    A1        1.91605  -0.00082   0.00000  -0.00513  -0.00513   1.91092
    A2        2.13040   0.00153   0.00000   0.00672   0.00672   2.13711
    A3        2.06347  -0.00358   0.00000  -0.01368  -0.01368   2.04979
    A4        2.08932   0.00205   0.00000   0.00696   0.00696   2.09628
    A5        2.09425  -0.00060   0.00000  -0.00315  -0.00315   2.09110
    A6        2.08992   0.00016   0.00000   0.00069   0.00069   2.09061
    A7        2.09901   0.00044   0.00000   0.00246   0.00246   2.10147
    A8        2.09997   0.00027   0.00000   0.00235   0.00236   2.10232
    A9        2.08560  -0.00021   0.00000  -0.00164  -0.00164   2.08396
   A10        2.09762  -0.00006   0.00000  -0.00072  -0.00072   2.09690
   A11        2.08819  -0.00176   0.00000  -0.00627  -0.00627   2.08192
   A12        2.09677   0.00090   0.00000   0.00327   0.00327   2.10003
   A13        2.09823   0.00086   0.00000   0.00300   0.00300   2.10124
   A14        2.10300   0.00095   0.00000   0.00504   0.00504   2.10804
   A15        2.09459  -0.00026   0.00000  -0.00116  -0.00116   2.09343
   A16        2.08560  -0.00069   0.00000  -0.00388  -0.00388   2.08172
   A17        2.09165  -0.00091   0.00000  -0.00493  -0.00494   2.08671
   A18        2.07165   0.00038   0.00000   0.00200   0.00200   2.07365
   A19        2.11989   0.00053   0.00000   0.00293   0.00294   2.12282
    D1        0.00000  -0.00000   0.00000  -0.00001  -0.00001  -0.00001
    D2        3.14157   0.00000   0.00000   0.00002   0.00002  -3.14159
    D3        3.14158   0.00000   0.00000   0.00001   0.00001  -3.14159
    D4       -0.00003   0.00000   0.00000   0.00003   0.00003   0.00001
    D5        0.00002  -0.00000   0.00000  -0.00002  -0.00002  -0.00000
    D6        3.14159  -0.00000   0.00000  -0.00000  -0.00000   3.14159
    D7       -3.14158  -0.00000   0.00000  -0.00001  -0.00001   3.14159
    D8        0.00001  -0.00000   0.00000  -0.00001  -0.00001  -0.00001
    D9       -0.00002   0.00000   0.00000   0.00002   0.00002   0.00001
   D10        3.14157   0.00000   0.00000   0.00002   0.00002  -3.14159
   D11       -0.00001   0.00000   0.00000   0.00001   0.00001   0.00000
   D12        3.14155   0.00000   0.00000   0.00004   0.00004  -3.14159
   D13       -3.14158  -0.00000   0.00000  -0.00001  -0.00001   3.14159
   D14       -0.00002   0.00000   0.00000   0.00002   0.00002   0.00000
   D15        0.00000   0.00000   0.00000   0.00000   0.00000   0.00000
   D16        3.14157   0.00000   0.00000   0.00002   0.00002  -3.14159
   D17       -3.14156  -0.00000   0.00000  -0.00003  -0.00003  -3.14159
   D18        0.00001  -0.00000   0.00000  -0.00001  -0.00001   0.00000
   D19        0.00000  -0.00000   0.00000  -0.00000  -0.00000  -0.00000
   D20        3.14158   0.00000   0.00000   0.00001   0.00001   3.14159
   D21       -3.14157  -0.00000   0.00000  -0.00002  -0.00002   3.14159
   D22        0.00001  -0.00000   0.00000  -0.00001  -0.00001  -0.00000
   D23        0.00001  -0.00000   0.00000  -0.00001  -0.00001  -0.00000
   D24       -3.14158  -0.00000   0.00000  -0.00001  -0.00001  -3.14159
   D25       -3.14157  -0.00000   0.00000  -0.00002  -0.00002   3.14159
   D26        0.00002  -0.00000   0.00000  -0.00002  -0.00002   0.00000
         Item               Value     Threshold  Converged?
 Maximum Force            0.004021     0.000450     NO 
 RMS     Force            0.001396     0.000300     NO 
 Maximum Displacement     0.023593     0.001800     NO 
 RMS     Displacement     0.006619     0.001200     NO 
 Predicted change in Energy=-1.501514D-04
 GradGradGradGradGradGradGradGradGradGradGradGradGradGradGradGradGradGrad

                          Input orientation:                          
 ---------------------------------------------------------------------
 Center     Atomic      Atomic             Coordinates (Angstroms)
 Number     Number       Type             X           Y           Z
 ---------------------------------------------------------------------
      1          8           0        2.272305   -0.066590   -0.000004
      2          6           0        0.913492   -0.003013   -0.000003
      3          6           0        0.223203    1.203829    0.000006
      4          6           0       -1.164780    1.204864    0.000013
      5          6           0       -1.868647    0.009793    0.000011
      6          6           0       -1.169035   -1.191396    0.000006
      7          6           0        0.216057   -1.205023   -0.000001
      8          1           0        2.635170    0.824075   -0.000004
      9          1           0        0.772928    2.139007    0.000008
     10          1           0       -1.695442    2.148199    0.000018
     11          1           0       -2.950348    0.013080    0.000014
     12          1           0       -1.707549   -2.130277    0.000004
     13          1           0        0.774426   -2.131918   -0.000007
 ---------------------------------------------------------------------
                    Distance matrix (angstroms):
                    1          2          3          4          5
     1  O    0.000000
     2  C    1.360300   0.000000
     3  C    2.410972   1.390311   0.000000
     4  C    3.664717   2.403784   1.387984   0.000000
     5  C    4.141656   2.782168   2.408642   1.386947   0.000000
     6  C    3.620499   2.397743   2.770457   2.396264   1.390076
     7  C    2.350359   1.389692   2.408863   2.777456   2.412833
     8  H    0.961746   1.910039   2.441679   3.818981   4.576835
     9  H    2.666982   2.146627   1.084783   2.151124   3.392855
    10  H    4.544041   3.381456   2.138465   1.082351   2.145409
    11  H    5.223261   3.863873   3.389589   2.146765   1.081706
    12  H    4.483084   3.375664   3.852800   3.379018   2.146125
    13  H    2.551318   2.133443   3.380985   3.859357   3.401876
                    6          7          8          9         10
     6  C    0.000000
     7  C    1.385159   0.000000
     8  H    4.305125   3.157427   0.000000
     9  H    3.855230   3.390079   2.279691   0.000000
    10  H    3.380828   3.859783   4.528521   2.468387   0.000000
    11  H    2.150311   3.392623   5.644087   4.287464   2.476595
    12  H    1.082356   2.134562   5.252371   4.937565   4.278493
    13  H    2.159079   1.082087   3.492887   4.270925   4.941624
                   11         12         13
    11  H    0.000000
    12  H    2.477605   0.000000
    13  H    4.298250   2.481976   0.000000
 Stoichiometry    C6H6O
 Framework group  C1[X(C6H6O)]
 Deg. of freedom    33
 Full point group                 C1      NOp   1
 Largest Abelian subgroup         C1      NOp   1
 Largest concise Abelian subgroup C1      NOp   1
                         Standard orientation:                         
 ---------------------------------------------------------------------
 Center     Atomic      Atomic             Coordinates (Angstroms)
 Number     Number       Type             X           Y           Z
 ---------------------------------------------------------------------
      1          8           0        2.292744   -0.109524   -0.000008
      2          6           0        0.935025   -0.025776   -0.000007
      3          6           0        0.262733    1.191184    0.000003
      4          6           0       -1.125081    1.212829    0.000010
      5          6           0       -1.846617    0.028342    0.000007
      6          6           0       -1.164919   -1.183104    0.000002
      7          6           0        0.219817   -1.217296   -0.000005
      8          1           0        2.668795    0.775655   -0.000008
      9          1           0        0.826284    2.118095    0.000004
     10          1           0       -1.641677    2.163940    0.000014
     11          1           0       -2.928150    0.047691    0.000010
     12          1           0       -1.717316   -2.113885    0.000000
     13          1           0        0.764361   -2.152381   -0.000011
 ---------------------------------------------------------------------
 Rotational constants (GHZ):           5.7144419           2.6437793           1.8075285
 Standard basis: def2TZVP (5D, 7F)
 There are   288 symmetry adapted cartesian basis functions of A   symmetry.
 There are   253 symmetry adapted basis functions of A   symmetry.
   253 basis functions,   405 primitive gaussians,   288 cartesian basis functions
    25 alpha electrons       25 beta electrons
       nuclear repulsion energy       272.3186305539 Hartrees.
 NAtoms=   13 NActive=   13 NUniq=   13 SFac= 1.00D+00 NAtFMM=   60 NAOKFM=F Big=F
 Integral buffers will be    131072 words long.
 Raffenetti 2 integral format.
 Two-electron integral symmetry is turned on.
 One-electron integrals computed using PRISM.
   1 Symmetry operations used in ECPInt.
 ECPInt:  NShTT=    5151 NPrTT=   15748 LenC2=    5092 LenP2D=   12856.
 LDataN:  DoStor=T MaxTD1= 6 Len=  172
 NBasis=   253 RedAO= T EigKep=  1.02D-05  NBF=   253
 NBsUse=   253 1.00D-06 EigRej= -1.00D+00 NBFU=   253
 Initial guess from the checkpoint file:  "/home/svss/projects/Project-Philicity/GS/hydrocarbon/set-1/GS/mol_27_hc/mol_27_hc.chk"
 B after Tr=    -0.000000    0.000000    0.000000
         Rot=    0.999997   -0.000001   -0.000002   -0.002632 Ang=  -0.30 deg.
 ExpMin= 9.52D-02 ExpMax= 2.70D+04 ExpMxC= 9.22D+02 IAcc=3 IRadAn=         5 AccDes= 0.00D+00
 Harris functional with IExCor= 1009 and IRadAn=       5 diagonalized for initial guess.
 HarFok:  IExCor= 1009 AccDes= 0.00D+00 IRadAn=         5 IDoV= 1 UseB2=F ITyADJ=14
 ICtDFT=  3500011 ScaDFX=  1.000000  1.000000  1.000000  1.000000
 FoFCou: FMM=F IPFlag=           0 FMFlag=      100000 FMFlg1=           0
         NFxFlg=           0 DoJE=T BraDBF=F KetDBF=T FulRan=T
         wScrn=  0.000000 ICntrl=       500 IOpCl=  0 I1Cent=   200000004 NGrid=           0
         NMat0=    1 NMatS0=      1 NMatT0=    0 NMatD0=    1 NMtDS0=    0 NMtDT0=    0
 Petite list used in FoFCou.
 Requested convergence on RMS density matrix=1.00D-08 within 128 cycles.
 Requested convergence on MAX density matrix=1.00D-06.
 Requested convergence on             energy=1.00D-06.
 No special actions if energy rises.
 Integral accuracy reduced to 1.0D-05 until final iterations.
 Initial convergence to 1.0D-05 achieved.  Increase integral accuracy.
 SCF Done:  E(RM062X) =  -307.457304868     A.U. after   10 cycles
            NFock= 10  Conv=0.62D-08     -V/T= 2.0047
   1 Symmetry operations used in ECPInt.
 ECPInt:  NShTT=    5151 NPrTT=   15748 LenC2=    5092 LenP2D=   12856.
 LDataN:  DoStor=T MaxTD1= 7 Len=  274
 Calling FoFJK, ICntrl=      2127 FMM=F ISym2X=0 I1Cent= 0 IOpClX= 0 NMat=1 NMatS=1 NMatT=0.
 ***** Axes restored to original set *****
 -------------------------------------------------------------------
 Center     Atomic                   Forces (Hartrees/Bohr)
 Number     Number              X              Y              Z
 -------------------------------------------------------------------
      1        8           0.000351040    0.000291204   -0.000000395
      2        6          -0.001261043    0.000368451    0.000001202
      3        6           0.000496100    0.000041572   -0.000000264
      4        6           0.000118072   -0.000589705   -0.000000288
      5        6           0.000011298    0.000059353    0.000000135
      6        6           0.000146250    0.000167425   -0.000000238
      7        6          -0.000278171   -0.000402956   -0.000000501
      8        1           0.000427855    0.000030851   -0.000000016
      9        1          -0.000154847   -0.000118827    0.000000024
     10        1           0.000093011    0.000026860    0.000000064
     11        1           0.000266691   -0.000055358    0.000000077
     12        1          -0.000032554   -0.000042213    0.000000073
     13        1          -0.000183703    0.000223344    0.000000128
 -------------------------------------------------------------------
 Cartesian Forces:  Max     0.001261043 RMS     0.000287720

 GradGradGradGradGradGradGradGradGradGradGradGradGradGradGradGradGradGrad
 Berny optimization.
 Using GEDIIS/GDIIS optimizer.
 FormGI is forming the generalized inverse of G from B-inverse, IUseBI=4.
 Internal  Forces:  Max     0.000764280 RMS     0.000206343
 Search for a local minimum.
 Step number   2 out of a maximum of   68
 All quantities printed in internal units (Hartrees-Bohrs-Radians)
 Mixed Optimization -- En-DIIS/RFO-DIIS
 Update second derivatives using D2CorX and points    1    2
 DE= -1.41D-04 DEPred=-1.50D-04 R= 9.36D-01
 TightC=F SS=  1.41D+00  RLast= 2.98D-02 DXNew= 5.0454D-01 8.9476D-02
 Trust test= 9.36D-01 RLast= 2.98D-02 DXMaxT set to 3.00D-01
 ITU=  1  0
 Use linear search instead of GDIIS.
     Eigenvalues ---    0.02203   0.02213   0.02231   0.02263   0.02273
     Eigenvalues ---    0.02290   0.02294   0.02303   0.02307   0.02316
     Eigenvalues ---    0.15960   0.16000   0.16000   0.16000   0.16000
     Eigenvalues ---    0.16234   0.21424   0.22238   0.23123   0.25164
     Eigenvalues ---    0.35718   0.35832   0.35994   0.36114   0.36668
     Eigenvalues ---    0.43036   0.43700   0.47268   0.48108   0.48371
     Eigenvalues ---    0.50084   0.53591   0.55912
 RFO step:  Lambda=-5.82731237D-06 EMin= 2.20286742D-02
 Quartic linear search produced a step of -0.06359.
 Iteration  1 RMS(Cart)=  0.00103763 RMS(Int)=  0.00000185
 Iteration  2 RMS(Cart)=  0.00000166 RMS(Int)=  0.00000004
 Iteration  3 RMS(Cart)=  0.00000000 RMS(Int)=  0.00000004
 Variable       Old X    -DE/DX   Delta X   Delta X   Delta X     New X
                                 (Linear)    (Quad)   (Total)
    R1        2.57059   0.00076   0.00013   0.00119   0.00132   2.57191
    R2        1.81744   0.00019   0.00036  -0.00016   0.00021   1.81764
    R3        2.62731  -0.00063  -0.00010  -0.00110  -0.00120   2.62611
    R4        2.62614   0.00030   0.00021   0.00034   0.00055   2.62669
    R5        2.62291  -0.00023  -0.00053   0.00024  -0.00029   2.62261
    R6        2.04994  -0.00018  -0.00025  -0.00014  -0.00039   2.04955
    R7        2.62095  -0.00022  -0.00042   0.00010  -0.00032   2.62063
    R8        2.04535  -0.00002  -0.00027   0.00030   0.00003   2.04538
    R9        2.62686  -0.00034  -0.00053   0.00003  -0.00050   2.62637
   R10        2.04413  -0.00027  -0.00028  -0.00032  -0.00060   2.04353
   R11        2.61757  -0.00037  -0.00051  -0.00003  -0.00054   2.61703
   R12        2.04536   0.00005  -0.00030   0.00053   0.00023   2.04559
   R13        2.04485  -0.00029  -0.00044  -0.00016  -0.00060   2.04425
    A1        1.91092   0.00070   0.00033   0.00368   0.00401   1.91493
    A2        2.13711  -0.00017  -0.00043  -0.00011  -0.00054   2.13657
    A3        2.04979   0.00003   0.00087  -0.00110  -0.00023   2.04957
    A4        2.09628   0.00014  -0.00044   0.00121   0.00076   2.09704
    A5        2.09110  -0.00028   0.00020  -0.00145  -0.00125   2.08985
    A6        2.09061   0.00021  -0.00004   0.00107   0.00103   2.09164
    A7        2.10147   0.00007  -0.00016   0.00038   0.00023   2.10170
    A8        2.10232   0.00025  -0.00015   0.00119   0.00104   2.10336
    A9        2.08396  -0.00023   0.00010  -0.00122  -0.00112   2.08284
   A10        2.09690  -0.00003   0.00005   0.00003   0.00008   2.09698
   A11        2.08192   0.00002   0.00040  -0.00049  -0.00010   2.08182
   A12        2.10003   0.00004  -0.00021   0.00056   0.00035   2.10038
   A13        2.10124  -0.00006  -0.00019  -0.00007  -0.00026   2.10098
   A14        2.10804  -0.00014  -0.00032  -0.00014  -0.00046   2.10757
   A15        2.09343   0.00006   0.00007   0.00012   0.00019   2.09363
   A16        2.08172   0.00008   0.00025   0.00002   0.00027   2.08198
   A17        2.08671  -0.00000   0.00031  -0.00031   0.00000   2.08671
   A18        2.07365   0.00005  -0.00013   0.00039   0.00026   2.07391
   A19        2.12282  -0.00005  -0.00019  -0.00008  -0.00027   2.12256
    D1       -0.00001   0.00000   0.00000   0.00000   0.00001  -0.00000
    D2       -3.14159  -0.00000  -0.00000  -0.00000  -0.00001   3.14159
    D3       -3.14159  -0.00000  -0.00000  -0.00001  -0.00001   3.14159
    D4        0.00001  -0.00000  -0.00000  -0.00001  -0.00001  -0.00000
    D5       -0.00000   0.00000   0.00000   0.00000   0.00001   0.00000
    D6        3.14159   0.00000   0.00000   0.00000   0.00000  -3.14159
    D7        3.14159   0.00000   0.00000   0.00000   0.00001  -3.14159
    D8       -0.00001   0.00000   0.00000   0.00001   0.00001   0.00000
    D9        0.00001  -0.00000  -0.00000  -0.00000  -0.00001  -0.00000
   D10       -3.14159  -0.00000  -0.00000  -0.00000  -0.00000   3.14159
   D11        0.00000  -0.00000  -0.00000   0.00000  -0.00000   0.00000
   D12       -3.14159  -0.00000  -0.00000   0.00000  -0.00000  -3.14159
   D13        3.14159   0.00000   0.00000  -0.00000   0.00000   3.14159
   D14        0.00000  -0.00000  -0.00000  -0.00000  -0.00000   0.00000
   D15        0.00000  -0.00000  -0.00000  -0.00000  -0.00000  -0.00000
   D16       -3.14159  -0.00000  -0.00000  -0.00000  -0.00000  -3.14159
   D17       -3.14159  -0.00000   0.00000  -0.00000  -0.00000   3.14159
   D18        0.00000  -0.00000   0.00000  -0.00000  -0.00000   0.00000
   D19       -0.00000   0.00000   0.00000   0.00000   0.00000   0.00000
   D20        3.14159   0.00000  -0.00000   0.00000   0.00000  -3.14159
   D21        3.14159   0.00000   0.00000   0.00000   0.00000   3.14159
   D22       -0.00000  -0.00000   0.00000  -0.00000  -0.00000  -0.00000
   D23       -0.00000   0.00000   0.00000   0.00000   0.00000  -0.00000
   D24       -3.14159  -0.00000   0.00000  -0.00000  -0.00000   3.14159
   D25        3.14159   0.00000   0.00000   0.00000   0.00000  -3.14159
   D26        0.00000   0.00000   0.00000  -0.00000  -0.00000   0.00000
         Item               Value     Threshold  Converged?
 Maximum Force            0.000764     0.000450     NO 
 RMS     Force            0.000206     0.000300     YES
 Maximum Displacement     0.006318     0.001800     NO 
 RMS     Displacement     0.001037     0.001200     YES
 Predicted change in Energy=-3.574828D-06
 GradGradGradGradGradGradGradGradGradGradGradGradGradGradGradGradGradGrad

                          Input orientation:                          
 ---------------------------------------------------------------------
 Center     Atomic      Atomic             Coordinates (Angstroms)
 Number     Number       Type             X           Y           Z
 ---------------------------------------------------------------------
      1          8           0        2.272113   -0.065843   -0.000005
      2          6           0        0.912597   -0.002342    0.000001
      3          6           0        0.223176    1.204265    0.000008
      4          6           0       -1.164652    1.204198    0.000013
      5          6           0       -1.868727    0.009444    0.000012
      6          6           0       -1.169428   -1.191623    0.000004
      7          6           0        0.215384   -1.204817   -0.000001
      8          1           0        2.638513    0.823491   -0.000007
      9          1           0        0.772263    2.139575    0.000008
     10          1           0       -1.695018    2.147718    0.000017
     11          1           0       -2.950110    0.012614    0.000015
     12          1           0       -1.707963   -2.130635    0.000003
     13          1           0        0.773632   -2.131415   -0.000007
 ---------------------------------------------------------------------
                    Distance matrix (angstroms):
                    1          2          3          4          5
     1  O    0.000000
     2  C    1.360998   0.000000
     3  C    2.410667   1.389677   0.000000
     4  C    3.663926   2.402228   1.387828   0.000000
     5  C    4.141524   2.781349   2.409078   1.386780   0.000000
     6  C    3.620992   2.397753   2.771214   2.395826   1.389813
     7  C    2.351041   1.389983   2.409094   2.776301   2.412042
     8  H    0.961855   1.913318   2.445167   3.822172   4.580162
     9  H    2.667099   2.146510   1.084575   2.150947   3.392977
    10  H    4.542904   3.379706   2.137655   1.082367   2.145318
    11  H    5.222812   3.862736   3.389657   2.146563   1.081388
    12  H    4.483789   3.375939   3.853680   3.378800   2.146108
    13  H    2.551869   2.133603   3.380793   3.857882   3.400785
                    6          7          8          9         10
     6  C    0.000000
     7  C    1.384875   0.000000
     8  H    4.308260   3.159998   0.000000
     9  H    3.855781   3.390438   2.283630   0.000000
    10  H    3.380450   3.858642   4.531343   2.467295   0.000000
    11  H    2.149654   3.391532   5.647144   4.287194   2.476676
    12  H    1.082479   2.134573   5.255351   4.938240   4.278372
    13  H    2.158400   1.081769   3.494174   4.270990   4.940162
                   11         12         13
    11  H    0.000000
    12  H    2.477185   0.000000
    13  H    4.296872   2.481594   0.000000
 Stoichiometry    C6H6O
 Framework group  C1[X(C6H6O)]
 Deg. of freedom    33
 Full point group                 C1      NOp   1
 Largest Abelian subgroup         C1      NOp   1
 Largest concise Abelian subgroup C1      NOp   1
                         Standard orientation:                         
 ---------------------------------------------------------------------
 Center     Atomic      Atomic             Coordinates (Angstroms)
 Number     Number       Type             X           Y           Z
 ---------------------------------------------------------------------
      1          8           0        2.292692   -0.110777   -0.000009
      2          6           0        0.934338   -0.025976   -0.000003
      3          6           0        0.263913    1.191288    0.000004
      4          6           0       -1.123745    1.212972    0.000008
      5          6           0       -1.846459    0.029400    0.000008
      6          6           0       -1.166071   -1.182480    0.000000
      7          6           0        0.218364   -1.217376   -0.000005
      8          1           0        2.672986    0.772706   -0.000011
      9          1           0        0.827592    2.117878    0.000004
     10          1           0       -1.639258    2.164688    0.000013
     11          1           0       -2.927660    0.049518    0.000011
     12          1           0       -1.719256   -2.112935   -0.000002
     13          1           0        0.762021   -2.152610   -0.000011
 ---------------------------------------------------------------------
 Rotational constants (GHZ):           5.7149772           2.6439586           1.8076659
 Standard basis: def2TZVP (5D, 7F)
 There are   288 symmetry adapted cartesian basis functions of A   symmetry.
 There are   253 symmetry adapted basis functions of A   symmetry.
   253 basis functions,   405 primitive gaussians,   288 cartesian basis functions
    25 alpha electrons       25 beta electrons
       nuclear repulsion energy       272.3267479479 Hartrees.
 NAtoms=   13 NActive=   13 NUniq=   13 SFac= 1.00D+00 NAtFMM=   60 NAOKFM=F Big=F
 Integral buffers will be    131072 words long.
 Raffenetti 2 integral format.
 Two-electron integral symmetry is turned on.
 One-electron integrals computed using PRISM.
   1 Symmetry operations used in ECPInt.
 ECPInt:  NShTT=    5151 NPrTT=   15748 LenC2=    5092 LenP2D=   12856.
 LDataN:  DoStor=T MaxTD1= 6 Len=  172
 NBasis=   253 RedAO= T EigKep=  1.02D-05  NBF=   253
 NBsUse=   253 1.00D-06 EigRej= -1.00D+00 NBFU=   253
 Initial guess from the checkpoint file:  "/home/svss/projects/Project-Philicity/GS/hydrocarbon/set-1/GS/mol_27_hc/mol_27_hc.chk"
 B after Tr=    -0.000000    0.000000    0.000000
         Rot=    1.000000   -0.000000    0.000000    0.000359 Ang=  -0.04 deg.
 Requested convergence on RMS density matrix=1.00D-08 within 128 cycles.
 Requested convergence on MAX density matrix=1.00D-06.
 Requested convergence on             energy=1.00D-06.
 No special actions if energy rises.
 SCF Done:  E(RM062X) =  -307.457308414     A.U. after    9 cycles
            NFock=  9  Conv=0.20D-08     -V/T= 2.0047
   1 Symmetry operations used in ECPInt.
 ECPInt:  NShTT=    5151 NPrTT=   15748 LenC2=    5092 LenP2D=   12856.
 LDataN:  DoStor=T MaxTD1= 7 Len=  274
 Calling FoFJK, ICntrl=      2127 FMM=F ISym2X=0 I1Cent= 0 IOpClX= 0 NMat=1 NMatS=1 NMatT=0.
 ***** Axes restored to original set *****
 -------------------------------------------------------------------
 Center     Atomic                   Forces (Hartrees/Bohr)
 Number     Number              X              Y              Z
 -------------------------------------------------------------------
      1        8           0.000140703   -0.000099007    0.000000049
      2        6          -0.000234568    0.000215016   -0.000000183
      3        6           0.000186661    0.000013028   -0.000000023
      4        6          -0.000133311   -0.000177940    0.000000041
      5        6           0.000049815    0.000157859   -0.000000143
      6        6           0.000096566   -0.000029205    0.000000110
      7        6          -0.000023194   -0.000127834    0.000000061
      8        1          -0.000058439    0.000007237    0.000000032
      9        1          -0.000076274   -0.000056615    0.000000016
     10        1           0.000008559   -0.000001472    0.000000038
     11        1           0.000047091    0.000001762    0.000000024
     12        1           0.000020589    0.000026490   -0.000000006
     13        1          -0.000024198    0.000070681   -0.000000016
 -------------------------------------------------------------------
 Cartesian Forces:  Max     0.000234568 RMS     0.000086418

 GradGradGradGradGradGradGradGradGradGradGradGradGradGradGradGradGradGrad
 Berny optimization.
 Using GEDIIS/GDIIS optimizer.
 FormGI is forming the generalized inverse of G from B-inverse, IUseBI=4.
 Internal  Forces:  Max     0.000174627 RMS     0.000044451
 Search for a local minimum.
 Step number   3 out of a maximum of   68
 All quantities printed in internal units (Hartrees-Bohrs-Radians)
 Mixed Optimization -- En-DIIS/RFO-DIIS
 Swapping is turned off.
 Update second derivatives using D2CorX and points    1    2    3
 DE= -3.55D-06 DEPred=-3.57D-06 R= 9.92D-01
 TightC=F SS=  1.41D+00  RLast= 5.27D-03 DXNew= 5.0454D-01 1.5823D-02
 Trust test= 9.92D-01 RLast= 5.27D-03 DXMaxT set to 3.00D-01
 ITU=  1  1  0
     Eigenvalues ---    0.02203   0.02213   0.02231   0.02263   0.02273
     Eigenvalues ---    0.02290   0.02294   0.02303   0.02307   0.02316
     Eigenvalues ---    0.15601   0.16000   0.16000   0.16000   0.16000
     Eigenvalues ---    0.17857   0.20367   0.22120   0.23037   0.26063
     Eigenvalues ---    0.35418   0.35928   0.36028   0.36122   0.36203
     Eigenvalues ---    0.42935   0.43648   0.46127   0.47692   0.48588
     Eigenvalues ---    0.49752   0.52611   0.55439
 En-DIIS/RFO-DIIS/Sim-DIIS IScMMF=       -3 using points:     3    2
 RFO step:  Lambda=-3.68073732D-07.
 DidBck=F Rises=F RFO-DIIS coefs:    1.02730   -0.02730
 Iteration  1 RMS(Cart)=  0.00018173 RMS(Int)=  0.00000002
 Iteration  2 RMS(Cart)=  0.00000003 RMS(Int)=  0.00000000
 Variable       Old X    -DE/DX   Delta X   Delta X   Delta X     New X
                                 (Linear)    (Quad)   (Total)
    R1        2.57191   0.00009   0.00004   0.00020   0.00024   2.57215
    R2        1.81764  -0.00002   0.00001  -0.00004  -0.00004   1.81761
    R3        2.62611  -0.00011  -0.00003  -0.00026  -0.00030   2.62581
    R4        2.62669   0.00000   0.00002   0.00002   0.00003   2.62672
    R5        2.62261   0.00002  -0.00001   0.00006   0.00005   2.62267
    R6        2.04955  -0.00009  -0.00001  -0.00026  -0.00027   2.04928
    R7        2.62063  -0.00017  -0.00001  -0.00037  -0.00038   2.62025
    R8        2.04538  -0.00001   0.00000  -0.00001  -0.00000   2.04537
    R9        2.62637   0.00002  -0.00001   0.00003   0.00002   2.62639
   R10        2.04353  -0.00005  -0.00002  -0.00014  -0.00016   2.04337
   R11        2.61703  -0.00011  -0.00001  -0.00024  -0.00025   2.61678
   R12        2.04559  -0.00003   0.00001  -0.00008  -0.00007   2.04551
   R13        2.04425  -0.00007  -0.00002  -0.00021  -0.00023   2.04402
    A1        1.91493  -0.00010   0.00011  -0.00054  -0.00043   1.91449
    A2        2.13657   0.00005  -0.00001   0.00019   0.00018   2.13675
    A3        2.04957  -0.00010  -0.00001  -0.00046  -0.00046   2.04910
    A4        2.09704   0.00005   0.00002   0.00027   0.00029   2.09733
    A5        2.08985  -0.00005  -0.00003  -0.00026  -0.00029   2.08956
    A6        2.09164   0.00006   0.00003   0.00036   0.00039   2.09202
    A7        2.10170  -0.00001   0.00001  -0.00010  -0.00010   2.10160
    A8        2.10336   0.00002   0.00003   0.00010   0.00013   2.10350
    A9        2.08284  -0.00002  -0.00003  -0.00014  -0.00017   2.08267
   A10        2.09698   0.00000   0.00000   0.00003   0.00004   2.09701
   A11        2.08182   0.00002  -0.00000   0.00006   0.00005   2.08188
   A12        2.10038  -0.00002   0.00001  -0.00006  -0.00005   2.10033
   A13        2.10098  -0.00000  -0.00001   0.00000  -0.00000   2.10098
   A14        2.10757  -0.00000  -0.00001  -0.00002  -0.00004   2.10754
   A15        2.09363   0.00000   0.00001   0.00002   0.00002   2.09365
   A16        2.08198   0.00000   0.00001   0.00001   0.00001   2.08200
   A17        2.08671  -0.00003   0.00000  -0.00015  -0.00015   2.08657
   A18        2.07391   0.00000   0.00001   0.00000   0.00001   2.07392
   A19        2.12256   0.00003  -0.00001   0.00015   0.00014   2.12270
    D1       -0.00000  -0.00000   0.00000  -0.00000  -0.00000  -0.00000
    D2        3.14159   0.00000  -0.00000   0.00000   0.00000   3.14159
    D3        3.14159   0.00000  -0.00000   0.00000   0.00000  -3.14159
    D4       -0.00000   0.00000  -0.00000   0.00000   0.00000   0.00000
    D5        0.00000  -0.00000   0.00000  -0.00000  -0.00000  -0.00000
    D6       -3.14159  -0.00000   0.00000  -0.00000  -0.00000   3.14159
    D7       -3.14159  -0.00000   0.00000  -0.00000  -0.00000   3.14159
    D8        0.00000  -0.00000   0.00000  -0.00000  -0.00000  -0.00000
    D9       -0.00000   0.00000  -0.00000   0.00000   0.00000   0.00000
   D10        3.14159   0.00000  -0.00000   0.00000   0.00000  -3.14159
   D11        0.00000  -0.00000  -0.00000  -0.00000  -0.00000   0.00000
   D12       -3.14159  -0.00000  -0.00000  -0.00000  -0.00000  -3.14159
   D13        3.14159   0.00000   0.00000   0.00000   0.00000  -3.14159
   D14        0.00000   0.00000  -0.00000   0.00000   0.00000   0.00000
   D15       -0.00000   0.00000  -0.00000   0.00000   0.00000   0.00000
   D16       -3.14159  -0.00000  -0.00000  -0.00000  -0.00000   3.14159
   D17        3.14159   0.00000  -0.00000   0.00000   0.00000  -3.14159
   D18        0.00000   0.00000  -0.00000  -0.00000  -0.00000   0.00000
   D19        0.00000  -0.00000   0.00000  -0.00000  -0.00000  -0.00000
   D20       -3.14159  -0.00000   0.00000  -0.00000  -0.00000   3.14159
   D21        3.14159   0.00000   0.00000   0.00000   0.00000   3.14159
   D22       -0.00000   0.00000  -0.00000   0.00000   0.00000   0.00000
   D23       -0.00000   0.00000   0.00000   0.00000   0.00000   0.00000
   D24        3.14159   0.00000  -0.00000   0.00000   0.00000  -3.14159
   D25       -3.14159  -0.00000   0.00000  -0.00000  -0.00000  -3.14159
   D26        0.00000  -0.00000  -0.00000  -0.00000  -0.00000  -0.00000
         Item               Value     Threshold  Converged?
 Maximum Force            0.000175     0.000450     YES
 RMS     Force            0.000044     0.000300     YES
 Maximum Displacement     0.000543     0.001800     YES
 RMS     Displacement     0.000182     0.001200     YES
 Predicted change in Energy=-1.840369D-07
 Optimization completed.
    -- Stationary point found.
                           ----------------------------
                           !   Optimized Parameters   !
                           ! (Angstroms and Degrees)  !
 --------------------------                            --------------------------
 ! Name  Definition              Value          Derivative Info.                !
 --------------------------------------------------------------------------------
 ! R1    R(1,2)                  1.361          -DE/DX =    0.0001              !
 ! R2    R(1,8)                  0.9619         -DE/DX =    0.0                 !
 ! R3    R(2,3)                  1.3897         -DE/DX =   -0.0001              !
 ! R4    R(2,7)                  1.39           -DE/DX =    0.0                 !
 ! R5    R(3,4)                  1.3878         -DE/DX =    0.0                 !
 ! R6    R(3,9)                  1.0846         -DE/DX =   -0.0001              !
 ! R7    R(4,5)                  1.3868         -DE/DX =   -0.0002              !
 ! R8    R(4,10)                 1.0824         -DE/DX =    0.0                 !
 ! R9    R(5,6)                  1.3898         -DE/DX =    0.0                 !
 ! R10   R(5,11)                 1.0814         -DE/DX =    0.0                 !
 ! R11   R(6,7)                  1.3849         -DE/DX =   -0.0001              !
 ! R12   R(6,12)                 1.0825         -DE/DX =    0.0                 !
 ! R13   R(7,13)                 1.0818         -DE/DX =   -0.0001              !
 ! A1    A(2,1,8)              109.7171         -DE/DX =   -0.0001              !
 ! A2    A(1,2,3)              122.4167         -DE/DX =    0.0                 !
 ! A3    A(1,2,7)              117.4316         -DE/DX =   -0.0001              !
 ! A4    A(3,2,7)              120.1518         -DE/DX =    0.0001              !
 ! A5    A(2,3,4)              119.7396         -DE/DX =    0.0                 !
 ! A6    A(2,3,9)              119.8419         -DE/DX =    0.0001              !
 ! A7    A(4,3,9)              120.4185         -DE/DX =    0.0                 !
 ! A8    A(3,4,5)              120.5139         -DE/DX =    0.0                 !
 ! A9    A(3,4,10)             119.3382         -DE/DX =    0.0                 !
 ! A10   A(5,4,10)             120.1479         -DE/DX =    0.0                 !
 ! A11   A(4,5,6)              119.2796         -DE/DX =    0.0                 !
 ! A12   A(4,5,11)             120.3432         -DE/DX =    0.0                 !
 ! A13   A(6,5,11)             120.3772         -DE/DX =    0.0                 !
 ! A14   A(5,6,7)              120.7551         -DE/DX =    0.0                 !
 ! A15   A(5,6,12)             119.9559         -DE/DX =    0.0                 !
 ! A16   A(7,6,12)             119.2889         -DE/DX =    0.0                 !
 ! A17   A(2,7,6)              119.56           -DE/DX =    0.0                 !
 ! A18   A(2,7,13)             118.8265         -DE/DX =    0.0                 !
 ! A19   A(6,7,13)             121.6136         -DE/DX =    0.0                 !
 ! D1    D(8,1,2,3)             -0.0001         -DE/DX =    0.0                 !
 ! D2    D(8,1,2,7)            179.9997         -DE/DX =    0.0                 !
 ! D3    D(1,2,3,4)           -180.0001         -DE/DX =    0.0                 !
 ! D4    D(1,2,3,9)              0.0            -DE/DX =    0.0                 !
 ! D5    D(7,2,3,4)              0.0            -DE/DX =    0.0                 !
 ! D6    D(7,2,3,9)            180.0001         -DE/DX =    0.0                 !
 ! D7    D(1,2,7,6)            180.0001         -DE/DX =    0.0                 !
 ! D8    D(1,2,7,13)             0.0001         -DE/DX =    0.0                 !
 ! D9    D(3,2,7,6)              0.0            -DE/DX =    0.0                 !
 ! D10   D(3,2,7,13)          -180.0            -DE/DX =    0.0                 !
 ! D11   D(2,3,4,5)              0.0            -DE/DX =    0.0                 !
 ! D12   D(2,3,4,10)          -179.9999         -DE/DX =    0.0                 !
 ! D13   D(9,3,4,5)           -180.0            -DE/DX =    0.0                 !
 ! D14   D(9,3,4,10)             0.0            -DE/DX =    0.0                 !
 ! D15   D(3,4,5,6)             -0.0001         -DE/DX =    0.0                 !
 ! D16   D(3,4,5,11)           180.0            -DE/DX =    0.0                 !
 ! D17   D(10,4,5,6)          -180.0001         -DE/DX =    0.0                 !
 ! D18   D(10,4,5,11)            0.0            -DE/DX =    0.0                 !
 ! D19   D(4,5,6,7)              0.0001         -DE/DX =    0.0                 !
 ! D20   D(4,5,6,12)           180.0            -DE/DX =    0.0                 !
 ! D21   D(11,5,6,7)           180.0            -DE/DX =    0.0                 !
 ! D22   D(11,5,6,12)           -0.0001         -DE/DX =    0.0                 !
 ! D23   D(5,6,7,2)              0.0            -DE/DX =    0.0                 !
 ! D24   D(5,6,7,13)          -180.0            -DE/DX =    0.0                 !
 ! D25   D(12,6,7,2)          -180.0            -DE/DX =    0.0                 !
 ! D26   D(12,6,7,13)            0.0            -DE/DX =    0.0                 !
 --------------------------------------------------------------------------------
 GradGradGradGradGradGradGradGradGradGradGradGradGradGradGradGradGradGrad

                          Input orientation:                          
 ---------------------------------------------------------------------
 Center     Atomic      Atomic             Coordinates (Angstroms)
 Number     Number       Type             X           Y           Z
 ---------------------------------------------------------------------
      1          8           0        2.272113   -0.065843   -0.000005
      2          6           0        0.912597   -0.002342    0.000001
      3          6           0        0.223176    1.204265    0.000008
      4          6           0       -1.164652    1.204198    0.000013
      5          6           0       -1.868727    0.009444    0.000012
      6          6           0       -1.169428   -1.191623    0.000004
      7          6           0        0.215384   -1.204817   -0.000001
      8          1           0        2.638513    0.823491   -0.000007
      9          1           0        0.772263    2.139575    0.000008
     10          1           0       -1.695018    2.147718    0.000017
     11          1           0       -2.950110    0.012614    0.000015
     12          1           0       -1.707963   -2.130635    0.000003
     13          1           0        0.773632   -2.131415   -0.000007
 ---------------------------------------------------------------------
                    Distance matrix (angstroms):
                    1          2          3          4          5
     1  O    0.000000
     2  C    1.360998   0.000000
     3  C    2.410667   1.389677   0.000000
     4  C    3.663926   2.402228   1.387828   0.000000
     5  C    4.141524   2.781349   2.409078   1.386780   0.000000
     6  C    3.620992   2.397753   2.771214   2.395826   1.389813
     7  C    2.351041   1.389983   2.409094   2.776301   2.412042
     8  H    0.961855   1.913318   2.445167   3.822172   4.580162
     9  H    2.667099   2.146510   1.084575   2.150947   3.392977
    10  H    4.542904   3.379706   2.137655   1.082367   2.145318
    11  H    5.222812   3.862736   3.389657   2.146563   1.081388
    12  H    4.483789   3.375939   3.853680   3.378800   2.146108
    13  H    2.551869   2.133603   3.380793   3.857882   3.400785
                    6          7          8          9         10
     6  C    0.000000
     7  C    1.384875   0.000000
     8  H    4.308260   3.159998   0.000000
     9  H    3.855781   3.390438   2.283630   0.000000
    10  H    3.380450   3.858642   4.531343   2.467295   0.000000
    11  H    2.149654   3.391532   5.647144   4.287194   2.476676
    12  H    1.082479   2.134573   5.255351   4.938240   4.278372
    13  H    2.158400   1.081769   3.494174   4.270990   4.940162
                   11         12         13
    11  H    0.000000
    12  H    2.477185   0.000000
    13  H    4.296872   2.481594   0.000000
 Stoichiometry    C6H6O
 Framework group  C1[X(C6H6O)]
 Deg. of freedom    33
 Full point group                 C1      NOp   1
 Largest Abelian subgroup         C1      NOp   1
 Largest concise Abelian subgroup C1      NOp   1
                         Standard orientation:                         
 ---------------------------------------------------------------------
 Center     Atomic      Atomic             Coordinates (Angstroms)
 Number     Number       Type             X           Y           Z
 ---------------------------------------------------------------------
      1          8           0        2.292692   -0.110777   -0.000009
      2          6           0        0.934338   -0.025976   -0.000003
      3          6           0        0.263913    1.191288    0.000004
      4          6           0       -1.123745    1.212972    0.000008
      5          6           0       -1.846459    0.029400    0.000008
      6          6           0       -1.166071   -1.182480    0.000000
      7          6           0        0.218364   -1.217376   -0.000005
      8          1           0        2.672986    0.772706   -0.000011
      9          1           0        0.827592    2.117878    0.000004
     10          1           0       -1.639258    2.164688    0.000013
     11          1           0       -2.927660    0.049518    0.000011
     12          1           0       -1.719256   -2.112935   -0.000002
     13          1           0        0.762021   -2.152610   -0.000011
 ---------------------------------------------------------------------
 Rotational constants (GHZ):           5.7149772           2.6439586           1.8076659

 **********************************************************************

            Population analysis using the SCF Density.

 **********************************************************************

 Orbital symmetries:
       Occupied  (A) (A) (A) (A) (A) (A) (A) (A) (A) (A) (A) (A)
                 (A) (A) (A) (A) (A) (A) (A) (A) (A) (A) (A) (A)
                 (A)
       Virtual   (A) (A) (A) (A) (A) (A) (A) (A) (A) (A) (A) (A)
                 (A) (A) (A) (A) (A) (A) (A) (A) (A) (A) (A) (A)
                 (A) (A) (A) (A) (A) (A) (A) (A) (A) (A) (A) (A)
                 (A) (A) (A) (A) (A) (A) (A) (A) (A) (A) (A) (A)
                 (A) (A) (A) (A) (A) (A) (A) (A) (A) (A) (A) (A)
                 (A) (A) (A) (A) (A) (A) (A) (A) (A) (A) (A) (A)
                 (A) (A) (A) (A) (A) (A) (A) (A) (A) (A) (A) (A)
                 (A) (A) (A) (A) (A) (A) (A) (A) (A) (A) (A) (A)
                 (A) (A) (A) (A) (A) (A) (A) (A) (A) (A) (A) (A)
                 (A) (A) (A) (A) (A) (A) (A) (A) (A) (A) (A) (A)
                 (A) (A) (A) (A) (A) (A) (A) (A) (A) (A) (A) (A)
                 (A) (A) (A) (A) (A) (A) (A) (A) (A) (A) (A) (A)
                 (A) (A) (A) (A) (A) (A) (A) (A) (A) (A) (A) (A)
                 (A) (A) (A) (A) (A) (A) (A) (A) (A) (A) (A) (A)
                 (A) (A) (A) (A) (A) (A) (A) (A) (A) (A) (A) (A)
                 (A) (A) (A) (A) (A) (A) (A) (A) (A) (A) (A) (A)
                 (A) (A) (A) (A) (A) (A) (A) (A) (A) (A) (A) (A)
                 (A) (A) (A) (A) (A) (A) (A) (A) (A) (A) (A) (A)
                 (A) (A) (A) (A) (A) (A) (A) (A) (A) (A) (A) (A)
 The electronic state is 1-A.
 Alpha  occ. eigenvalues --  -19.65659 -10.60440 -10.54516 -10.54320 -10.54225
 Alpha  occ. eigenvalues --  -10.53628 -10.53447  -1.18930  -0.95957  -0.84907
 Alpha  occ. eigenvalues --   -0.83710  -0.71252  -0.68870  -0.62527  -0.57639
 Alpha  occ. eigenvalues --   -0.54339  -0.50844  -0.49754  -0.49253  -0.46640
 Alpha  occ. eigenvalues --   -0.42394  -0.41495  -0.40175  -0.31268  -0.28245
 Alpha virt. eigenvalues --    0.01990   0.03770   0.06061   0.08582   0.11108
 Alpha virt. eigenvalues --    0.12398   0.14244   0.15217   0.16763   0.19557
 Alpha virt. eigenvalues --    0.22254   0.23038   0.24274   0.24846   0.26129
 Alpha virt. eigenvalues --    0.27233   0.28153   0.28887   0.29364   0.31520
 Alpha virt. eigenvalues --    0.35922   0.36273   0.36701   0.37249   0.38995
 Alpha virt. eigenvalues --    0.39539   0.41118   0.42862   0.44089   0.44382
 Alpha virt. eigenvalues --    0.45375   0.46785   0.48430   0.49659   0.50377
 Alpha virt. eigenvalues --    0.52177   0.52519   0.53526   0.54216   0.54977
 Alpha virt. eigenvalues --    0.60169   0.61273   0.67169   0.68286   0.68630
 Alpha virt. eigenvalues --    0.72080   0.74171   0.75383   0.77024   0.78729
 Alpha virt. eigenvalues --    0.79090   0.81217   0.86058   0.87320   0.88004
 Alpha virt. eigenvalues --    0.90822   0.91760   0.91949   0.93414   1.03807
 Alpha virt. eigenvalues --    1.04579   1.06186   1.08040   1.11182   1.11265
 Alpha virt. eigenvalues --    1.18475   1.19447   1.21539   1.23077   1.23727
 Alpha virt. eigenvalues --    1.25671   1.26769   1.30193   1.32919   1.36826
 Alpha virt. eigenvalues --    1.38104   1.42142   1.44498   1.44869   1.49348
 Alpha virt. eigenvalues --    1.49989   1.54374   1.54633   1.54849   1.59837
 Alpha virt. eigenvalues --    1.63000   1.64921   1.65172   1.71375   1.72463
 Alpha virt. eigenvalues --    1.72771   1.74655   1.75050   1.77679   1.78773
 Alpha virt. eigenvalues --    1.81295   1.87674   1.89314   1.92766   1.94330
 Alpha virt. eigenvalues --    1.96113   2.04589   2.06463   2.06582   2.09300
 Alpha virt. eigenvalues --    2.11979   2.16506   2.18029   2.18392   2.22343
 Alpha virt. eigenvalues --    2.24744   2.26815   2.29323   2.34026   2.38509
 Alpha virt. eigenvalues --    2.42936   2.47548   2.49717   2.52545   2.55173
 Alpha virt. eigenvalues --    2.59052   2.60276   2.60949   2.63946   2.66444
 Alpha virt. eigenvalues --    2.68174   2.69297   2.69513   2.69899   2.73213
 Alpha virt. eigenvalues --    2.74075   2.77004   2.77067   2.77655   2.81039
 Alpha virt. eigenvalues --    2.83320   2.83665   2.85419   2.87760   2.88897
 Alpha virt. eigenvalues --    2.92127   2.92491   2.96507   3.03212   3.04323
 Alpha virt. eigenvalues --    3.04589   3.08857   3.09896   3.11133   3.14642
 Alpha virt. eigenvalues --    3.15040   3.16577   3.20013   3.22238   3.22526
 Alpha virt. eigenvalues --    3.23413   3.23609   3.24998   3.31458   3.31766
 Alpha virt. eigenvalues --    3.35454   3.38433   3.40568   3.41579   3.43964
 Alpha virt. eigenvalues --    3.44834   3.47419   3.50370   3.51263   3.51829
 Alpha virt. eigenvalues --    3.52747   3.59014   3.63347   3.68409   3.73658
 Alpha virt. eigenvalues --    3.75937   3.76320   3.83059   3.91883   3.96502
 Alpha virt. eigenvalues --    4.00352   4.03383   4.04975   4.08346   4.08952
 Alpha virt. eigenvalues --    4.14434   4.15859   4.17562   4.17753   4.19541
 Alpha virt. eigenvalues --    4.24307   4.26942   4.27798   4.34696   4.49347
 Alpha virt. eigenvalues --    4.54851   4.59387   4.61737   4.64129   4.75518
 Alpha virt. eigenvalues --    4.79450   4.80856   4.85760   5.08674   5.13436
 Alpha virt. eigenvalues --    5.18681   5.22195   5.27741   5.33767   5.44899
 Alpha virt. eigenvalues --    5.49176   5.56321   5.78511   5.97679   6.28526
 Alpha virt. eigenvalues --    6.36631   6.41856   6.70529   6.77806   6.96182
 Alpha virt. eigenvalues --    7.24464  22.09983  22.69878  22.71304  22.80822
 Alpha virt. eigenvalues --   22.91639  23.33128  44.06600
          Condensed to atoms (all electrons):
               1          2          3          4          5          6
     1  O    7.919999   0.330664  -0.086964   0.009875   0.001151  -0.000562
     2  C    0.330664   4.571061   0.508480  -0.014346  -0.039559  -0.055395
     3  C   -0.086964   0.508480   5.189771   0.371638  -0.035095  -0.051323
     4  C    0.009875  -0.014346   0.371638   4.989442   0.516613  -0.038731
     5  C    0.001151  -0.039559  -0.035095   0.516613   4.908351   0.526488
     6  C   -0.000562  -0.055395  -0.051323  -0.038731   0.526488   4.851032
     7  C   -0.053801   0.549365  -0.057119  -0.042084  -0.058969   0.537546
[...]
 ! R1    R(1,2)                  1.361          -DE/DX =    0.0001              !
 ! R2    R(1,8)                  0.9619         -DE/DX =    0.0                 !
 ! R3    R(2,3)                  1.3897         -DE/DX =   -0.0001              !
 ! R4    R(2,7)                  1.39           -DE/DX =    0.0                 !
 ! R5    R(3,4)                  1.3878         -DE/DX =    0.0                 !
 ! R6    R(3,9)                  1.0846         -DE/DX =   -0.0001              !
 ! R7    R(4,5)                  1.3868         -DE/DX =   -0.0002              !
 ! R8    R(4,10)                 1.0824         -DE/DX =    0.0                 !
 ! R9    R(5,6)                  1.3898         -DE/DX =    0.0                 !
 ! R10   R(5,11)                 1.0814         -DE/DX =    0.0                 !
 ! R11   R(6,7)                  1.3849         -DE/DX =   -0.0001              !
 ! R12   R(6,12)                 1.0825         -DE/DX =    0.0                 !
 ! R13   R(7,13)                 1.0818         -DE/DX =   -0.0001              !
 ! A1    A(2,1,8)              109.7171         -DE/DX =   -0.0001              !
 ! A2    A(1,2,3)              122.4167         -DE/DX =    0.0                 !
 ! A3    A(1,2,7)              117.4316         -DE/DX =   -0.0001              !
 ! A4    A(3,2,7)              120.1518         -DE/DX =    0.0001              !
 ! A5    A(2,3,4)              119.7396         -DE/DX =    0.0                 !
 ! A6    A(2,3,9)              119.8419         -DE/DX =    0.0001              !
 ! A7    A(4,3,9)              120.4185         -DE/DX =    0.0                 !
 ! A8    A(3,4,5)              120.5139         -DE/DX =    0.0                 !
 ! A9    A(3,4,10)             119.3382         -DE/DX =    0.0                 !
 ! A10   A(5,4,10)             120.1479         -DE/DX =    0.0                 !
 ! A11   A(4,5,6)              119.2796         -DE/DX =    0.0                 !
 ! A12   A(4,5,11)             120.3432         -DE/DX =    0.0                 !
 ! A13   A(6,5,11)             120.3772         -DE/DX =    0.0                 !
 ! A14   A(5,6,7)              120.7551         -DE/DX =    0.0                 !
 ! A15   A(5,6,12)             119.9559         -DE/DX =    0.0                 !
 ! A16   A(7,6,12)             119.2889         -DE/DX =    0.0                 !
 ! A17   A(2,7,6)              119.56           -DE/DX =    0.0                 !
 ! A18   A(2,7,13)             118.8265         -DE/DX =    0.0                 !
 ! A19   A(6,7,13)             121.6136         -DE/DX =    0.0                 !
 ! D1    D(8,1,2,3)             -0.0001         -DE/DX =    0.0                 !
 ! D2    D(8,1,2,7)            179.9997         -DE/DX =    0.0                 !
 ! D3    D(1,2,3,4)            179.9999         -DE/DX =    0.0                 !
 ! D4    D(1,2,3,9)              0.0            -DE/DX =    0.0                 !
 ! D5    D(7,2,3,4)              0.0            -DE/DX =    0.0                 !
 ! D6    D(7,2,3,9)            180.0001         -DE/DX =    0.0                 !
 ! D7    D(1,2,7,6)            180.0001         -DE/DX =    0.0                 !
 ! D8    D(1,2,7,13)             0.0001         -DE/DX =    0.0                 !
 ! D9    D(3,2,7,6)              0.0            -DE/DX =    0.0                 !
 ! D10   D(3,2,7,13)           180.0            -DE/DX =    0.0                 !
 ! D11   D(2,3,4,5)              0.0            -DE/DX =    0.0                 !
 ! D12   D(2,3,4,10)           180.0001         -DE/DX =    0.0                 !
 ! D13   D(9,3,4,5)            180.0            -DE/DX =    0.0                 !
 ! D14   D(9,3,4,10)             0.0            -DE/DX =    0.0                 !
 ! D15   D(3,4,5,6)             -0.0001         -DE/DX =    0.0                 !
 ! D16   D(3,4,5,11)           180.0            -DE/DX =    0.0                 !
 ! D17   D(10,4,5,6)          -180.0001         -DE/DX =    0.0                 !
 ! D18   D(10,4,5,11)            0.0            -DE/DX =    0.0                 !
 ! D19   D(4,5,6,7)              0.0001         -DE/DX =    0.0                 !
 ! D20   D(4,5,6,12)          -180.0            -DE/DX =    0.0                 !
 ! D21   D(11,5,6,7)           180.0            -DE/DX =    0.0                 !
 ! D22   D(11,5,6,12)           -0.0001         -DE/DX =    0.0                 !
 ! D23   D(5,6,7,2)              0.0            -DE/DX =    0.0                 !
 ! D24   D(5,6,7,13)          -180.0            -DE/DX =    0.0                 !
 ! D25   D(12,6,7,2)           180.0            -DE/DX =    0.0                 !
 ! D26   D(12,6,7,13)            0.0            -DE/DX =    0.0                 !
 --------------------------------------------------------------------------------
 GradGradGradGradGradGradGradGradGradGradGradGradGradGradGradGradGradGrad


 ----------------------------------------------------------------------

 Electric dipole moment (input orientation):
 (Debye = 10**-18 statcoulomb cm , SI units = C m)
                  (au)            (Debye)         (10**-30 SI)
   Tot        0.527779D+00      0.134148D+01      0.447469D+01
   x         -0.135664D-01     -0.344825D-01     -0.115021D+00
   y          0.527604D+00      0.134104D+01      0.447322D+01
   z          0.000000D+00      0.000000D+00      0.000000D+00

 Dipole polarizability, Alpha (input orientation).
 (esu units = cm**3 , SI units = C**2 m**2 J**-1)
 Alpha(0;0):
               (au)            (10**-24 esu)      (10**-40 SI)
   iso        0.688708D+02      0.102056D+02      0.113553D+02
   aniso      0.430949D+02      0.638600D+01      0.710538D+01
   xx         0.869598D+02      0.128861D+02      0.143377D+02
   yx         0.127966D+01      0.189626D+00      0.210987D+00
   yy         0.791138D+02      0.117235D+02      0.130441D+02
   zx        -0.176741D-03     -0.261903D-04     -0.291407D-04
   zy         0.127058D-03      0.188280D-04      0.209490D-04
   zz         0.405387D+02      0.600722D+01      0.668393D+01

 ----------------------------------------------------------------------

 Dipole orientation:
     8          4.28763601          0.11025974         -0.23475148
     6          1.72330502          0.04430957         -0.04875375
     6          0.47994133          0.01232208          2.26413817
     6         -2.14094304         -0.05507870          2.33142464
     6         -3.52858977         -0.09075386          0.10861403
     6         -2.26630297         -0.05827796         -2.19429261
     6          0.34824257          0.00896036         -2.28648352
     1          5.02276032          0.12916233          1.42749307
     1          1.56229819          0.04014905          4.00436265
     1         -3.09671106         -0.07966577          4.13959253
     1         -5.57060316         -0.14326722          0.16713017
     1         -3.32891062         -0.08559495         -3.94202125
     1          1.35748611          0.03492532         -4.06403881

 Electric dipole moment (dipole orientation):
 (Debye = 10**-18 statcoulomb cm , SI units = C m)
                  (au)            (Debye)         (10**-30 SI)
   Tot        0.527779D+00      0.134148D+01      0.447469D+01
   x          0.000000D+00      0.000000D+00      0.000000D+00
   y          0.000000D+00      0.000000D+00      0.000000D+00
   z          0.527779D+00      0.134148D+01      0.447469D+01

 Dipole polarizability, Alpha (dipole orientation).
 (esu units = cm**3 , SI units = C**2 m**2 J**-1)
 Alpha(0;0):
               (au)            (10**-24 esu)      (10**-40 SI)
   iso        0.688708D+02      0.102056D+02      0.113553D+02
   aniso      0.430949D+02      0.638600D+01      0.710538D+01
   xx         0.869896D+02      0.128905D+02      0.143427D+02
   yx         0.119458D+01      0.177018D+00      0.196959D+00
   yy         0.405694D+02      0.601177D+01      0.668900D+01
   zx         0.107601D+01      0.159448D+00      0.177409D+00
   zy         0.274667D-01      0.407015D-02      0.452865D-02
   zz         0.790532D+02      0.117145D+02      0.130341D+02

 ----------------------------------------------------------------------
 Unable to Open any file for archive entry.
 1\1\GINC-NODE12\Freq\RM062X\def2TZVP\C6H6O1\SVSS\20-Jun-2022\0\\#N Geo
 m=AllCheck Guess=TCheck SCRF=Check GenChk RM062X/def2TZVP Freq\\conver
 ted from /home/svss/projects/Project-Philicity/GS/hydrocarbon/set-1/GS
 /mol_27_hc/mol_27_hc_cregen_best.xyz\\0,1\O,2.2721125883,-0.0658426738
 ,-0.000005309\C,0.9125968821,-0.0023420191,0.0000012621\C,0.2231760516
 ,1.2042649346,0.0000077855\C,-1.1646516117,1.2041975377,0.000012581\C,
 -1.8687270072,0.0094439222,0.0000116216\C,-1.1694282964,-1.1916233115,
 0.0000041115\C,0.2153837717,-1.2048166731,-0.0000009415\H,2.6385131142
 ,0.8234913703,-0.0000069524\H,0.7722633537,2.1395753068,0.0000082468\H
 ,-1.6950178368,2.1477175775,0.0000167418\H,-2.9501100014,0.0126136387,
 0.0000149783\H,-1.707962665,-2.1306346733,0.000002515\H,0.773631657,-2
 .131414937,-0.0000066406\\Version=AS64L-G16RevC.01\State=1-A\HF=-307.4
 573084\RMSD=9.165e-10\RMSF=8.642e-05\ZeroPoint=0.1054726\Thermal=0.110
 9637\ETot=-307.3463447\HTot=-307.3454005\GTot=-307.3807985\Dipole=-0.0
 135664,0.5276042,-0.0000009\DipoleDeriv=-1.6032149,-0.0367381,0.000005
 1,-0.0321737,-0.196317,0.0000001,0.0000052,0.,-0.3638308,1.5294453,0.0
 117261,-0.000006,0.0184666,0.0656943,0.,-0.0000069,0.,0.0899705,-0.291
 9797,-0.0608136,0.0000002,0.2912772,-0.0068715,-0.0000007,0.0000016,0.
 0000004,-0.1781584,0.1285174,0.1204561,-0.0000004,-0.0324741,0.1421271
 ,0.0000008,-0.0000016,0.0000005,-0.1319656,-0.0320289,-0.0097245,-0.00
 00004,0.0123691,-0.2795278,-0.0000004,0.0000011,-0.0000003,-0.1642145,
 0.148016,-0.0962854,-0.0000013,0.0163889,0.155324,0.0000011,-0.0000018
 ,0.000001,-0.1275948,-0.2796202,0.0433665,0.0000007,-0.2700677,0.00235
 36,0.0000018,0.0000001,0.0000005,-0.1637631,0.3886629,0.0596944,-0.000
 0003,0.0254983,0.1605187,-0.0000003,0.0000002,-0.0000004,0.3252112,-0.
 0156419,-0.0827156,0.0000004,-0.0796392,-0.0250662,-0.0000002,0.000000
 5,0.,0.1511546,0.0343088,0.0590851,0.0000006,0.0635194,-0.0408918,-0.0
 000008,0.0000006,-0.0000007,0.1339812,-0.0789921,0.0008646,0.0000008,0
 .0002641,0.0613744,-0.0000003,0.0000001,-0.0000003,0.1476935,0.0342588
 ,-0.0623892,0.0000001,-0.0636907,-0.0389108,-0.0000004,0.0000003,-0.00
 00001,0.1320425,0.0382685,0.0534736,0.0000006,0.0502619,0.0001929,-0.0
 000008,0.0000005,-0.0000008,0.1494737\Polar=86.9597777,1.2796588,79.11
 38213,-0.0001767,0.0001271,40.5387265\Quadrupole=1.3757825,2.9388716,-
 4.3146541,3.2616671,-0.0000199,0.0000059\PG=C01 [X(C6H6O1)]\NImag=0\\0
 .50460093,0.14963272,0.57477078,-0.00000229,-0.00000047,0.02646728,-0.
 31637533,-0.01058094,0.00000136,0.70962293,0.03985339,-0.10924734,-0.0
 0000029,0.00952257,0.71988938,0.00000128,-0.00000005,-0.04306321,-0.00
 000224,0.00000175,0.16297614,-0.04467293,0.04572507,0.00000039,-0.1666
 5098,0.02698280,0.00000047,0.71548685,0.00647956,0.00178799,-0.0000000
 4,0.11689624,-0.28960001,-0.00000112,0.03348339,0.72032828,0.00000027,
 -0.00000022,0.00945276,0.00000074,-0.00000074,-0.06807418,-0.00000215,
 0.00000163,0.12273348,0.00373387,-0.00717339,-0.00000002,-0.02689686,0
 .09746558,0.00000044,-0.34772391,-0.03702330,0.00000093,0.69458047,0.0
 0227795,-0.00892714,-0.00000007,0.03123588,0.04783358,0.00000003,0.037
 58915,-0.12929743,-0.00000033,-0.03095471,0.73749800,0.00000003,-0.000
 00002,0.00759162,0.00000019,-0.00000022,0.00084701,0.00000114,-0.00000
 005,-0.05673446,-0.00000202,0.00000177,0.13564422,-0.00703329,0.000170
 40,0.00000002,0.00510620,-0.00153416,-0.00000005,-0.02960079,-0.026467
 50,0.00000007,-0.18585053,-0.13174159,0.00000005,0.76109720,0.00118893
 ,0.00794003,0.00000004,-0.00165563,-0.09256681,-0.00000031,-0.08563733
 ,0.03951288,0.00000041,-0.05577124,-0.28895042,-0.00000042,0.00253524,
 0.66805513,0.00000004,0.00000003,-0.00133666,-0.00000006,-0.00000030,-
 0.00480524,-0.00000017,0.00000018,0.00672193,0.00000030,-0.00000018,-0
 .06156710,-0.00000224,0.00000181,0.12817014,0.00581886,0.00626397,0.00
 000004,-0.03024642,-0.09441775,-0.00000023,-0.05850614,0.03092757,0.00
 000029,0.07294206,0.03016935,-0.00000013,-0.18343643,0.05211957,0.0000
 0063,0.70139905,-0.00144585,-0.01020841,-0.00000005,-0.02910905,0.0503
 8920,0.00000030,0.03630025,-0.02259701,-0.00000019,-0.03102896,-0.0636
 0547,-0.00000014,0.12803611,-0.28474644,-0.00000132,0.03377473,0.73173
 707,0.,-0.00000008,0.00517736,0.,0.00000055,0.00155620,0.00000034,-0.0
 0000019,-0.00474443,-0.00000036,-0.00000035,0.00666967,0.00000093,-0.0
 0000106,-0.06230979,-0.00000196,0.00000211,0.13943280,-0.04467504,-0.0
 5217955,0.00000003,-0.15922640,-0.03056686,0.00000023,0.06819191,-0.02
 606667,-0.00000031,-0.05857140,-0.03563313,0.00000009,-0.02824317,0.08
 534322,0.00000044,-0.35625457,-0.03441885,0.00000097,0.72991228,-0.013
 21921,0.00421532,0.00000002,-0.11533280,-0.29024950,-0.00000040,0.0263
 2922,-0.05186385,-0.00000031,-0.03243259,-0.02246421,0.00000005,0.0278
 4526,0.04086613,0.00000004,0.04023895,-0.13304713,-0.00000045,-0.03989
 246,0.72686106,0.00000021,0.00000021,0.00754319,-0.00000013,-0.0000007
 4,-0.07157640,-0.00000012,-0.00000013,0.00932114,0.00000007,0.00000006
 ,-0.00391550,0.00000026,-0.00000018,0.00690349,0.00000126,-0.00000017,
 -0.05925202,-0.00000245,0.00000244,0.12929365,-0.10413650,-0.13328740,
 0.00000050,-0.02509647,-0.04668255,0.00000007,0.00335973,-0.00149775,-
 0.00000003,-0.00096616,-0.00048081,0.,0.00050002,0.00098881,0.,0.00062
 851,-0.00222640,0.,-0.00687624,0.00277097,0.00000006,0.13288427,-0.185
 11582,-0.46567604,0.00000081,0.00012030,-0.00021439,-0.00000001,0.0059
 0104,0.00378451,-0.00000001,-0.00023190,-0.00104651,0.,0.00048243,0.00
 002606,0.,-0.00026098,-0.00026486,0.,0.00149699,0.00233488,0.,0.178119
 56,0.46172260,0.00000053,0.00000057,-0.00337306,0.00000005,0.00000023,
 -0.00315068,0.,0.00000001,-0.00071766,0.,0.,-0.00055509,0.,0.,0.000064
 51,0.,0.,0.00163716,0.00000003,-0.00000001,0.00229927,-0.00000060,-0.0
 0000078,0.00420081,0.00370871,0.00060261,-0.00000003,0.00771921,0.0132
 1446,0.00000002,-0.12776517,-0.11985280,0.00000003,-0.01034116,-0.0292
 5186,-0.00000004,-0.00552522,0.00148616,0.00000005,-0.00102306,0.00080
 138,0.,-0.00056941,0.00339724,0.00000003,-0.00031667,-0.00082902,0.,0.
 13310186,-0.00030786,0.00286695,0.00000002,-0.01904504,-0.01885176,0.,
 -0.11972475,-0.26832345,-0.00000019,0.00129034,0.00375251,0.,0.0005412
 9,0.00228000,-0.00000001,0.00140302,0.00004193,0.,0.00401869,-0.003562
 44,-0.00000004,0.00203016,-0.00098619,-0.00000002,0.13092778,0.2831111
 1,-0.00000005,0.00000001,-0.00401113,-0.00000005,-0.00000012,0.0041721
 3,0.00000004,-0.00000018,-0.03230948,0.00000005,0.00000012,0.00145233,
 0.00000005,-0.00000003,0.00738569,0.,0.,-0.00062998,0.00000003,-0.0000
 0004,0.00524662,0.00000002,0.,0.00052942,-0.00000006,0.00000023,0.0226
 2593,-0.00141823,0.00154671,0.00000001,-0.00494118,-0.00151456,0.00000
 004,-0.01058214,0.02851218,0.00000012,-0.12810974,0.12146347,0.0000006
 1,0.01226231,-0.01449580,-0.00000007,-0.00068224,-0.00341673,0.0000000
 2,-0.00095813,-0.00081607,0.,0.00027297,0.00019996,0.,0.00107516,-0.00
 035103,-0.00000002,0.13189436,0.00011654,0.00003420,0.,-0.00100140,0.0
 0197091,0.,-0.00191234,0.00353402,0.,0.12173425,-0.27591387,-0.0000010
 2,0.01606226,-0.01771985,-0.00000012,-0.00395743,-0.00355798,-0.000000
 01,-0.00098223,0.00031314,0.,-0.00005075,-0.00001705,0.,0.00036977,0.0
 0068551,0.,-0.13102541,0.29075273,0.,0.,-0.00002074,0.00000005,-0.0000
 0003,0.00800821,0.00000003,-0.00000009,0.00256410,0.00000061,-0.000001
 00,-0.03701671,0.,-0.00000002,0.00318562,0.00000002,-0.00000002,0.0074
 4838,0.,0.00000001,-0.00113654,0.,0.,-0.00005307,-0.00000002,0.0000000
 1,-0.00394196,-0.00000068,0.00000112,0.02583372,0.00012827,0.00003812,
 0.,0.00054463,0.00007138,0.,0.00070383,-0.00306654,0.00000001,-0.01133
 467,0.00267751,0.00000005,-0.34614384,0.00091589,0.00000101,-0.0110785
 4,-0.00264903,0.00000003,0.00067753,0.00307952,0.00000003,0.00008433,-
 0.00007296,0.,-0.00065305,0.00016165,0.,0.00069298,-0.00025063,-0.0000
 0002,0.36627946,0.00004533,0.00051863,0.,-0.00012039,-0.00198364,0.,-0
 .00231579,-0.00422877,-0.00000003,-0.02838470,0.00464864,0.00000010,0.
 00099877,-0.05904685,-0.00000009,0.02835488,0.00467148,-0.00000008,0.0
 0231750,-0.00439181,-0.00000005,0.00016242,-0.00006145,0.,-0.00143058,
 0.00004270,0.,0.00062164,0.00095803,0.00000001,-0.00095075,0.05779515,
 -0.00000001,0.,-0.00082725,0.,0.,-0.00073149,0.00000002,-0.00000002,0.
 00746574,-0.00000004,0.,0.00121588,0.00000097,-0.00000008,-0.03348494,
 0.00000017,0.00000001,0.00123555,0.00000003,-0.00000006,0.00720520,0.,
 0.,-0.00007018,0.,0.,0.00036108,-0.00000001,0.00000001,-0.00397758,-0.
 00000111,0.00000011,0.02510942,-0.00092951,-0.00171083,0.,-0.00474150,
 0.00141047,0.00000006,-0.00102388,0.00081390,0.,-0.00059882,0.00344548
 ,0.00000004,0.01216637,0.01436865,0.00000002,-0.12994867,-0.12246793,-
 0.00000013,-0.01082220,-0.02858614,-0.00000006,-0.00043239,-0.00000755
 ,0.,0.00006085,-0.00007903,0.,0.00042925,0.00080091,0.,0.00068837,-0.0
 0063225,-0.00000002,0.13405192,-0.00022578,-0.00000901,0.,0.00112632,0
 .00187420,-0.00000003,0.00096656,0.00038851,0.,0.00389765,-0.00361705,
 -0.00000005,-0.01616701,-0.01772696,-0.00000002,-0.12279657,-0.2737924
 1,-0.00000045,0.00189843,0.00383555,0.,0.00008970,0.00007195,0.,-0.000
 10138,-0.00003404,0.,-0.00080142,-0.00102067,0.,0.00025676,0.00095316,
 0.00000002,0.13221246,0.28844626,0.,0.,-0.00002440,0.00000005,-0.00000
 002,0.00831817,0.00000001,0.,-0.00086678,0.00000005,-0.00000006,0.0070
 9087,-0.00000010,-0.00000014,0.00338324,-0.00000012,-0.00000044,-0.038
 40844,0.00000005,0.00000010,0.00346351,0.,0.,-0.00021207,0.,0.,-0.0009
 1137,0.,0.,0.00000732,-0.00000001,0.00000002,-0.00380822,0.00000011,0.
 00000051,0.02630687,0.00125019,0.00095251,-0.00000002,0.01118215,-0.01
 380478,-0.00000008,-0.00121638,-0.00313830,0.00000001,-0.00086315,-0.0
 0079669,0.,-0.00529884,-0.00138647,0.00000004,-0.00961241,0.02785032,0
 .00000016,-0.13258516,0.12661810,0.00000084,0.00009459,0.00019796,0.,0
 .00052795,-0.00086522,0.,0.00006463,0.00009646,0.,-0.00058930,0.001333
 92,0.,0.00110019,-0.00035572,-0.00000002,0.13594553,0.00072010,0.00193
 404,0.00000002,0.01794394,-0.01924383,-0.00000016,-0.00368726,-0.00342
 567,-0.00000002,-0.00138703,0.00008939,0.,-0.00076150,0.00207709,-0.00
 000002,-0.00181931,0.00498004,0.00000002,0.12466491,-0.27284712,-0.000
 00139,0.00006403,0.00032649,0.,0.00066623,-0.00102284,0.,0.00007706,-0
 .00001911,0.,-0.00021093,0.00012472,0.,0.00043186,0.00063049,0.0000000
 2,-0.13670210,0.28639630,-0.00000002,0.00000002,-0.00357577,0.00000005
 ,-0.00000007,0.00552334,0.,-0.00000002,0.00518784,0.,0.,-0.00072275,0.
 00000005,-0.00000001,0.00768908,0.00000004,-0.00000009,0.00218752,0.00
 000085,-0.00000138,-0.03539562,0.,0.,-0.00059937,0.,0.,0.00003072,0.,0
 .,-0.00090076,0.,0.,0.00030678,-0.00000002,0.00000002,-0.00433871,-0.0
 0000094,0.00000153,0.02460769\\-0.00014072,0.00009901,-0.00000005,0.00
 023455,-0.00021506,0.00000018,-0.00018668,-0.00001305,0.00000002,0.000
 13333,0.00017794,-0.00000004,-0.00004980,-0.00015786,0.00000014,-0.000
 09656,0.00002923,-0.00000011,0.00002323,0.00012788,-0.00000006,0.00005
 844,-0.00000724,-0.00000003,0.00007628,0.00005662,-0.00000002,-0.00000
 856,0.00000147,-0.00000004,-0.00004710,-0.00000176,-0.00000002,-0.0000
 2060,-0.00002650,0.,0.00002419,-0.00007068,0.00000002\\\@
 The archive entry for this job was punched.


 BE LIKE A POSTAGE STAMP.  STICK TO ONE THING UNTIL
 YOU GET THERE -- JOSH BILLINGS
 Job cpu time:       0 days  0 hours 35 minutes 36.6 seconds.
 Elapsed time:       0 days  0 hours  4 minutes 39.0 seconds.
 File lengths (MBytes):  RWF=    149 Int=      0 D2E=      0 Chk=      7 Scr=      2
 Normal termination of Gaussian 16 at Mon Jun 20 19:04:12 2022.
