 Entering Gaussian System, Link 0=/opt/apps/Gaussian/G16C/g16/g16
 Input=/home/svss/projects/Project-Philicity/GS/hydrocarbon/set-1/GS/mol_23_hc/mol_23_hc.com
 Output=/home/svss/projects/Project-Philicity/GS/hydrocarbon/set-1/GS/mol_23_hc/mol_23_hc.log
 Initial command:
 /opt/apps/Gaussian/G16C/g16/l1.exe "/home/svss/projects/Project-Philicity/GS/hydrocarbon/set-1/Gau-226889.inp" -scrdir="/home/svss/projects/Project-Philicity/GS/hydrocarbon/set-1/"
 Entering Link 1 = /opt/apps/Gaussian/G16C/g16/l1.exe PID=    226890.
  
 Copyright (c) 1988-2019, Gaussian, Inc.  All Rights Reserved.
  
 This is part of the Gaussian(R) 16 program.  It is based on
 the Gaussian(R) 09 system (copyright 2009, Gaussian, Inc.),
 the Gaussian(R) 03 system (copyright 2003, Gaussian, Inc.),
 the Gaussian(R) 98 system (copyright 1998, Gaussian, Inc.),
 the Gaussian(R) 94 system (copyright 1995, Gaussian, Inc.),
 the Gaussian 92(TM) system (copyright 1992, Gaussian, Inc.),
 the Gaussian 90(TM) system (copyright 1990, Gaussian, Inc.),
 the Gaussian 88(TM) system (copyright 1988, Gaussian, Inc.),
 the Gaussian 86(TM) system (copyright 1986, Carnegie Mellon
 University), and the Gaussian 82(TM) system (copyright 1983,
 Carnegie Mellon University). Gaussian is a federally registered
 trademark of Gaussian, Inc.
  
 This software contains proprietary and confidential information,
 including trade secrets, belonging to Gaussian, Inc.
  
 This software is provided under written license and may be
 used, copied, transmitted, or stored only in accord with that
 written license.
  
 The following legend is applicable only to US Government
 contracts under FAR:
  
                    RESTRICTED RIGHTS LEGEND
  
 Use, reproduction and disclosure by the US Government is
 subject to restrictions as set forth in subparagraphs (a)
 and (c) of the Commercial Computer Software - Restricted
 Rights clause in FAR 52.227-19.
  
 Gaussian, Inc.
 340 Quinnipiac St., Bldg. 40, Wallingford CT 06492
  
  
 ---------------------------------------------------------------
 Warning -- This program may not be used in any manner that
 competes with the business of Gaussian, Inc. or will provide
 assistance to any competitor of Gaussian, Inc.  The licensee
 of this program is prohibited from giving any competitor of
 Gaussian, Inc. access to this program.  By using this program,
 the user acknowledges that Gaussian, Inc. is engaged in the
 business of creating and licensing software in the field of
 computational chemistry and represents and warrants to the
 licensee that it is not a competitor of Gaussian, Inc. and that
 it will not use this program in any manner prohibited above.
 ---------------------------------------------------------------
  

 Cite this work as:
 Gaussian 16, Revision C.01,
 M. J. Frisch, G. W. Trucks, H. B. Schlegel, G. E. Scuseria, 
 M. A. Robb, J. R. Cheeseman, G. Scalmani, V. Barone, 
 G. A. Petersson, H. Nakatsuji, X. Li, M. Caricato, A. V. Marenich, 
 J. Bloino, B. G. Janesko, R. Gomperts, B. Mennucci, H. P. Hratchian, 
 J. V. Ortiz, A. F. Izmaylov, J. L. Sonnenberg, D. Williams-Young, 
 F. Ding, F. Lipparini, F. Egidi, J. Goings, B. Peng, A. Petrone, 
 T. Henderson, D. Ranasinghe, V. G. Zakrzewski, J. Gao, N. Rega, 
 G. Zheng, W. Liang, M. Hada, M. Ehara, K. Toyota, R. Fukuda, 
 J. Hasegawa, M. Ishida, T. Nakajima, Y. Honda, O. Kitao, H. Nakai, 
 T. Vreven, K. Throssell, J. A. Montgomery, Jr., J. E. Peralta, 
 F. Ogliaro, M. J. Bearpark, J. J. Heyd, E. N. Brothers, K. N. Kudin, 
 V. N. Staroverov, T. A. Keith, R. Kobayashi, J. Normand, 
 K. Raghavachari, A. P. Rendell, J. C. Burant, S. S. Iyengar, 
 J. Tomasi, M. Cossi, J. M. Millam, M. Klene, C. Adamo, R. Cammi, 
 J. W. Ochterski, R. L. Martin, K. Morokuma, O. Farkas, 
 J. B. Foresman, and D. J. Fox, Gaussian, Inc., Wallingford CT, 2019.
 
 ******************************************
 Gaussian 16:  AS64L-G16RevC.01  3-Jul-2019
                20-Jun-2022 
 ******************************************
 %nproc=8
 Will use up to    8 processors via shared memory.
 %mem=96GB
 %chk=/home/svss/projects/Project-Philicity/GS/hydrocarbon/set-1/GS/mol_23_hc/mol
 _23_hc.chk
 -------------------------
 # opt freq M062X/def2tzvp
 -------------------------
 1/18=20,19=15,26=3,38=1/1,3;
 2/9=110,12=2,17=6,18=5,40=1/2;
 3/5=44,7=101,11=2,25=1,30=1,71=1,74=-55/1,2,3;
 4//1;
 5/5=2,38=5/2;
 6/7=2,8=2,9=2,10=2,28=1/1;
 7//1,2,3,16;
 1/18=20,19=15,26=3/3(2);
 2/9=110/2;
 99//99;
 2/9=110/2;
 3/5=44,7=101,11=2,25=1,30=1,71=1,74=-55/1,2,3;
 4/5=5,16=3,69=1/1;
 5/5=2,38=5/2;
 7//1,2,3,16;
 1/18=20,19=15,26=3/3(-5);
 2/9=110/2;
 6/7=2,8=2,9=2,10=2,19=2,28=1/1;
 99/9=1/99;
 ----------------------------------------------------------------------
 converted from /home/svss/projects/Project-Philicity/GS/hydrocarbon/se
 t-1/GS/mol_23_hc/mol_23_hc_cregen_best.xyz
 ----------------------------------------------------------------------
 Symbolic Z-matrix:
 Charge =  0 Multiplicity = 1
 C                     2.55975   0.88076   0.00037 
 C                     1.35588  -0.03234   0.0103 
 O                     1.42298  -1.23415  -0.00186 
 O                     0.23744   0.68619   0.01963 
 C                    -1.07128   0.05904  -0.00103 
 C                    -1.2401   -0.76548  -1.27652 
 C                    -1.2595   -0.80753   1.24349 
 C                    -2.04745   1.23578   0.01094 
 H                     3.36359   0.42776   0.57313 
 H                     2.29929   1.85482   0.40156 
 H                     2.89456   0.99763  -1.0286 
 H                    -1.05527  -0.14421  -2.15047 
 H                    -2.25331  -1.15391  -1.32852 
 H                    -0.54255  -1.59846  -1.28337 
 H                    -1.08857  -0.21569   2.14035 
 H                    -2.27318  -1.19758   1.26661 
 H                    -0.56137  -1.63993   1.23358 
 H                    -1.89763   1.83529   0.90494 
 H                    -3.07005   0.87089  -0.00441 
 H                    -1.88202   1.86627  -0.85867 
 

 GradGradGradGradGradGradGradGradGradGradGradGradGradGradGradGradGradGrad
 Berny optimization.
 Initialization pass.
                           ----------------------------
                           !    Initial Parameters    !
                           ! (Angstroms and Degrees)  !
 --------------------------                            --------------------------
 ! Name  Definition              Value          Derivative Info.                !
 --------------------------------------------------------------------------------
 ! R1    R(1,2)                  1.511          estimate D2E/DX2                !
 ! R2    R(1,9)                  1.086          estimate D2E/DX2                !
 ! R3    R(1,10)                 1.0852         estimate D2E/DX2                !
 ! R4    R(1,11)                 1.0884         estimate D2E/DX2                !
 ! R5    R(2,3)                  1.2037         estimate D2E/DX2                !
 ! R6    R(2,4)                  1.3294         estimate D2E/DX2                !
 ! R7    R(4,5)                  1.4514         estimate D2E/DX2                !
 ! R8    R(5,6)                  1.5281         estimate D2E/DX2                !
 ! R9    R(5,7)                  1.5281         estimate D2E/DX2                !
 ! R10   R(5,8)                  1.529          estimate D2E/DX2                !
 ! R11   R(6,12)                 1.0881         estimate D2E/DX2                !
 ! R12   R(6,13)                 1.0864         estimate D2E/DX2                !
 ! R13   R(6,14)                 1.0865         estimate D2E/DX2                !
 ! R14   R(7,15)                 1.088          estimate D2E/DX2                !
 ! R15   R(7,16)                 1.0864         estimate D2E/DX2                !
 ! R16   R(7,17)                 1.0864         estimate D2E/DX2                !
 ! R17   R(8,18)                 1.0868         estimate D2E/DX2                !
 ! R18   R(8,19)                 1.0859         estimate D2E/DX2                !
 ! R19   R(8,20)                 1.0868         estimate D2E/DX2                !
 ! A1    A(2,1,9)              109.5233         estimate D2E/DX2                !
 ! A2    A(2,1,10)             110.4118         estimate D2E/DX2                !
 ! A3    A(2,1,11)             108.4332         estimate D2E/DX2                !
 ! A4    A(9,1,10)             110.9216         estimate D2E/DX2                !
 ! A5    A(9,1,11)             108.4037         estimate D2E/DX2                !
 ! A6    A(10,1,11)            109.0854         estimate D2E/DX2                !
 ! A7    A(1,2,3)              123.9762         estimate D2E/DX2                !
 ! A8    A(1,2,4)              110.1043         estimate D2E/DX2                !
 ! A9    A(3,2,4)              125.9158         estimate D2E/DX2                !
 ! A10   A(2,4,5)              121.6664         estimate D2E/DX2                !
 ! A11   A(4,5,6)              110.1601         estimate D2E/DX2                !
 ! A12   A(4,5,7)              110.1518         estimate D2E/DX2                !
 ! A13   A(4,5,8)              104.0649         estimate D2E/DX2                !
 ! A14   A(6,5,7)              111.1112         estimate D2E/DX2                !
 ! A15   A(6,5,8)              110.5644         estimate D2E/DX2                !
 ! A16   A(7,5,8)              110.5744         estimate D2E/DX2                !
 ! A17   A(5,6,12)             110.0943         estimate D2E/DX2                !
 ! A18   A(5,6,13)             109.6278         estimate D2E/DX2                !
 ! A19   A(5,6,14)             110.3648         estimate D2E/DX2                !
 ! A20   A(12,6,13)            108.9133         estimate D2E/DX2                !
 ! A21   A(12,6,14)            108.8823         estimate D2E/DX2                !
 ! A22   A(13,6,14)            108.927          estimate D2E/DX2                !
 ! A23   A(5,7,15)             110.0897         estimate D2E/DX2                !
 ! A24   A(5,7,16)             109.6249         estimate D2E/DX2                !
 ! A25   A(5,7,17)             110.3589         estimate D2E/DX2                !
 ! A26   A(15,7,16)            108.9256         estimate D2E/DX2                !
 ! A27   A(15,7,17)            108.864          estimate D2E/DX2                !
 ! A28   A(16,7,17)            108.9469         estimate D2E/DX2                !
 ! A29   A(5,8,18)             110.0586         estimate D2E/DX2                !
 ! A30   A(5,8,19)             110.0304         estimate D2E/DX2                !
 ! A31   A(5,8,20)             110.0624         estimate D2E/DX2                !
 ! A32   A(18,8,19)            109.0762         estimate D2E/DX2                !
 ! A33   A(18,8,20)            108.4945         estimate D2E/DX2                !
 ! A34   A(19,8,20)            109.0861         estimate D2E/DX2                !
 ! D1    D(9,1,2,3)            -35.1399         estimate D2E/DX2                !
 ! D2    D(9,1,2,4)            145.5215         estimate D2E/DX2                !
 ! D3    D(10,1,2,3)          -157.5656         estimate D2E/DX2                !
 ! D4    D(10,1,2,4)            23.0958         estimate D2E/DX2                !
 ! D5    D(11,1,2,3)            82.9765         estimate D2E/DX2                !
 ! D6    D(11,1,2,4)           -96.3621         estimate D2E/DX2                !
 ! D7    D(1,2,4,5)            178.5398         estimate D2E/DX2                !
 ! D8    D(3,2,4,5)             -0.783          estimate D2E/DX2                !
 ! D9    D(2,4,5,6)            -61.1539         estimate D2E/DX2                !
 ! D10   D(2,4,5,7)             61.7639         estimate D2E/DX2                !
 ! D11   D(2,4,5,8)           -179.6912         estimate D2E/DX2                !
 ! D12   D(4,5,6,12)           -54.9041         estimate D2E/DX2                !
 ! D13   D(4,5,6,13)          -174.6996         estimate D2E/DX2                !
 ! D14   D(4,5,6,14)            65.3194         estimate D2E/DX2                !
 ! D15   D(7,5,6,12)          -177.2578         estimate D2E/DX2                !
 ! D16   D(7,5,6,13)            62.9466         estimate D2E/DX2                !
 ! D17   D(7,5,6,14)           -57.0344         estimate D2E/DX2                !
 ! D18   D(8,5,6,12)            59.5674         estimate D2E/DX2                !
 ! D19   D(8,5,6,13)           -60.2282         estimate D2E/DX2                !
 ! D20   D(8,5,6,14)           179.7908         estimate D2E/DX2                !
 ! D21   D(4,5,7,15)            54.9153         estimate D2E/DX2                !
 ! D22   D(4,5,7,16)           174.7213         estimate D2E/DX2                !
 ! D23   D(4,5,7,17)           -65.2787         estimate D2E/DX2                !
 ! D24   D(6,5,7,15)           177.2739         estimate D2E/DX2                !
 ! D25   D(6,5,7,16)           -62.9201         estimate D2E/DX2                !
 ! D26   D(6,5,7,17)            57.0799         estimate D2E/DX2                !
 ! D27   D(8,5,7,15)           -59.557          estimate D2E/DX2                !
 ! D28   D(8,5,7,16)            60.2489         estimate D2E/DX2                !
 ! D29   D(8,5,7,17)          -179.751          estimate D2E/DX2                !
 ! D30   D(4,5,8,18)           -59.8442         estimate D2E/DX2                !
 ! D31   D(4,5,8,19)           179.9275         estimate D2E/DX2                !
 ! D32   D(4,5,8,20)            59.6845         estimate D2E/DX2                !
 ! D33   D(6,5,8,18)          -178.1039         estimate D2E/DX2                !
 ! D34   D(6,5,8,19)            61.6679         estimate D2E/DX2                !
 ! D35   D(6,5,8,20)           -58.5751         estimate D2E/DX2                !
 ! D36   D(7,5,8,18)            58.4106         estimate D2E/DX2                !
 ! D37   D(7,5,8,19)           -61.8177         estimate D2E/DX2                !
 ! D38   D(7,5,8,20)           177.9393         estimate D2E/DX2                !
 --------------------------------------------------------------------------------
 Trust Radius=3.00D-01 FncErr=1.00D-07 GrdErr=1.00D-06 EigMax=2.50D+02 EigMin=1.00D-04
 Number of steps in this run=    101 maximum allowed number of steps=    120.
 GradGradGradGradGradGradGradGradGradGradGradGradGradGradGradGradGradGrad

                          Input orientation:                          
 ---------------------------------------------------------------------
 Center     Atomic      Atomic             Coordinates (Angstroms)
 Number     Number       Type             X           Y           Z
 ---------------------------------------------------------------------
      1          6           0        2.559750    0.880760    0.000370
      2          6           0        1.355880   -0.032340    0.010300
      3          8           0        1.422980   -1.234150   -0.001860
      4          8           0        0.237440    0.686190    0.019630
      5          6           0       -1.071280    0.059040   -0.001030
      6          6           0       -1.240100   -0.765480   -1.276520
      7          6           0       -1.259500   -0.807530    1.243490
      8          6           0       -2.047450    1.235780    0.010940
      9          1           0        3.363590    0.427760    0.573130
     10          1           0        2.299290    1.854820    0.401560
     11          1           0        2.894560    0.997630   -1.028600
     12          1           0       -1.055270   -0.144210   -2.150470
     13          1           0       -2.253310   -1.153910   -1.328520
     14          1           0       -0.542550   -1.598460   -1.283370
     15          1           0       -1.088570   -0.215690    2.140350
     16          1           0       -2.273180   -1.197580    1.266610
     17          1           0       -0.561370   -1.639930    1.233580
     18          1           0       -1.897630    1.835290    0.904940
     19          1           0       -3.070050    0.870890   -0.004410
     20          1           0       -1.882020    1.866270   -0.858670
 ---------------------------------------------------------------------
                    Distance matrix (angstroms):
                    1          2          3          4          5
     1  C    0.000000
     2  C    1.511011   0.000000
     3  O    2.401061   1.203743   0.000000
     4  O    2.330526   1.329391   2.256917   0.000000
     5  C    3.722849   2.428906   2.809568   1.451376   0.000000
     6  C    4.333522   2.988731   2.989382   2.443456   1.528139
     7  C    4.356873   2.993642   2.988076   2.443330   1.528136
     8  C    4.620870   3.631912   4.259648   2.350074   1.528976
     9  H    1.086012   2.135268   2.618879   3.185273   4.487058
    10  H    1.085166   2.145805   3.236109   2.400582   3.840266
    11  H    1.088364   2.123132   2.863666   2.873337   4.202944
    12  H    4.329555   3.239612   3.456330   2.658947   2.159088
    13  H    5.391788   4.009565   3.909165   3.377471   2.151900
    14  H    4.173582   2.780351   2.374510   2.743323   2.161309
    15  H    4.369434   3.247471   3.454592   2.658786   2.159001
    16  H    5.411106   4.013250   3.907935   3.377390   2.151876
    17  H    4.197151   2.785069   2.372470   2.742737   2.161196
    18  H    4.647323   3.856650   4.611963   2.581226   2.158402
    19  H    5.629811   4.517178   4.961705   3.312730   2.157358
    20  H    4.630173   3.852769   4.611914   2.579944   2.158455
                    6          7          8          9         10
     6  C    0.000000
     7  C    2.520435   0.000000
     8  C    2.512849   2.512998   0.000000
     9  H    5.102841   4.832006   5.499846   0.000000
    10  H    4.712664   4.523488   4.407941   1.788483   0.000000
    11  H    4.501715   5.067269   5.055771   1.763599   1.770446
    12  H    1.088084   3.464198   2.749634   5.222209   4.664981
    13  H    1.086359   2.779006   2.747208   6.137387   5.724666
    14  H    1.086498   2.743102   3.460185   4.775991   4.779141
    15  H    3.464135   1.088048   2.749655   4.763605   4.334512
    16  H    2.778754   1.086380   2.747527   5.907268   5.565334
    17  H    2.743345   1.086450   3.460201   4.485181   4.592266
    18  H    3.457617   2.739767   1.086782   5.456343   4.227045
    19  H    2.764903   2.766304   1.085860   6.474692   5.473823
    20  H    2.740943   3.457718   1.086787   5.624570   4.367112
                   11         12         13         14         15
    11  H    0.000000
    12  H    4.261871   0.000000
    13  H    5.587454   1.769292   0.000000
    14  H    4.314895   1.769064   1.768152   0.000000
    15  H    5.232563   4.291545   3.777557   3.732566   0.000000
    16  H    6.065680   3.777477   2.595573   3.107762   1.769415
    17  H    4.900779   3.732681   3.108574   2.517362   1.768794
    18  H    5.235011   3.736779   3.748355   4.291338   2.527318
    19  H    6.053231   3.113734   2.553458   3.757883   3.115592
    20  H    4.857893   2.528694   3.078978   3.738837   3.736073
                   16         17         18         19         20
    16  H    0.000000
    17  H    1.768349   0.000000
    18  H    3.077360   3.737747   0.000000
    19  H    2.555203   3.759031   1.769620   0.000000
    20  H    3.749266   4.291278   1.763951   1.769734   0.000000
 Stoichiometry    C6H12O2
 Framework group  C1[X(C6H12O2)]
 Deg. of freedom    54
 Full point group                 C1      NOp   1
 Largest Abelian subgroup         C1      NOp   1
 Largest concise Abelian subgroup C1      NOp   1
                         Standard orientation:                         
 ---------------------------------------------------------------------
 Center     Atomic      Atomic             Coordinates (Angstroms)
 Number     Number       Type             X           Y           Z
 ---------------------------------------------------------------------
      1          6           0       -2.629846    0.792714   -0.004657
      2          6           0       -1.400870   -0.086329   -0.012010
      3          8           0       -1.434293   -1.289519    0.002633
      4          8           0       -0.302987    0.663223   -0.022232
      5          6           0        1.022771    0.073017    0.000463
      6          6           0        1.213841   -0.743795    1.277772
      7          6           0        1.235944   -0.790529   -1.242133
      8          6           0        1.965609    1.276608   -0.013439
      9          1           0       -3.420336    0.316187   -0.576908
     10          1           0       -2.396524    1.772850   -0.407746
     11          1           0       -2.968424    0.902302    1.023881
     12          1           0        1.011152   -0.126128    2.150315
     13          1           0        2.237500   -1.103586    1.331143
     14          1           0        0.539889   -1.595969    1.285985
     15          1           0        1.049051   -0.205577   -2.140327
     16          1           0        2.260164   -1.152083   -1.263878
     17          1           0        0.561394   -1.642133   -1.230861
     18          1           0        1.799602    1.869825   -0.908776
     19          1           0        2.998018    0.940535    0.003239
     20          1           0        1.782057    1.904026    0.854756
 ---------------------------------------------------------------------
 Rotational constants (GHZ):           3.3244813           1.4531318           1.3107089
 Standard basis: def2TZVP (5D, 7F)
 There are   360 symmetry adapted cartesian basis functions of A   symmetry.
 There are   320 symmetry adapted basis functions of A   symmetry.
   320 basis functions,   504 primitive gaussians,   360 cartesian basis functions
    32 alpha electrons       32 beta electrons
       nuclear repulsion energy       412.8336667174 Hartrees.
 NAtoms=   20 NActive=   20 NUniq=   20 SFac= 1.00D+00 NAtFMM=   60 NAOKFM=F Big=F
 Integral buffers will be    131072 words long.
 Raffenetti 2 integral format.
 Two-electron integral symmetry is turned on.
 One-electron integrals computed using PRISM.
   1 Symmetry operations used in ECPInt.
 ECPInt:  NShTT=    9316 NPrTT=   27240 LenC2=    9152 LenP2D=   21482.
 LDataN:  DoStor=T MaxTD1= 6 Len=  172
 NBasis=   320 RedAO= T EigKep=  2.07D-04  NBF=   320
 NBsUse=   320 1.00D-06 EigRej= -1.00D+00 NBFU=   320
 ExpMin= 9.52D-02 ExpMax= 2.70D+04 ExpMxC= 9.22D+02 IAcc=3 IRadAn=         5 AccDes= 0.00D+00
 Harris functional with IExCor= 1009 and IRadAn=       5 diagonalized for initial guess.
 HarFok:  IExCor= 1009 AccDes= 0.00D+00 IRadAn=         5 IDoV= 1 UseB2=F ITyADJ=14
 ICtDFT=  3500011 ScaDFX=  1.000000  1.000000  1.000000  1.000000
 FoFCou: FMM=F IPFlag=           0 FMFlag=      100000 FMFlg1=           0
         NFxFlg=           0 DoJE=T BraDBF=F KetDBF=T FulRan=T
         wScrn=  0.000000 ICntrl=       500 IOpCl=  0 I1Cent=   200000004 NGrid=           0
         NMat0=    1 NMatS0=      1 NMatT0=    0 NMatD0=    1 NMtDS0=    0 NMtDT0=    0
 Petite list used in FoFCou.
 Requested convergence on RMS density matrix=1.00D-08 within 128 cycles.
 Requested convergence on MAX density matrix=1.00D-06.
 Requested convergence on             energy=1.00D-06.
 No special actions if energy rises.
 Integral accuracy reduced to 1.0D-05 until final iterations.
 Initial convergence to 1.0D-05 achieved.  Increase integral accuracy.
 SCF Done:  E(RM062X) =  -386.313766652     A.U. after   14 cycles
            NFock= 14  Conv=0.38D-08     -V/T= 2.0047

 **********************************************************************

            Population analysis using the SCF Density.

 **********************************************************************

 Orbital symmetries:
       Occupied  (A) (A) (A) (A) (A) (A) (A) (A) (A) (A) (A) (A)
                 (A) (A) (A) (A) (A) (A) (A) (A) (A) (A) (A) (A)
                 (A) (A) (A) (A) (A) (A) (A) (A)
       Virtual   (A) (A) (A) (A) (A) (A) (A) (A) (A) (A) (A) (A)
                 (A) (A) (A) (A) (A) (A) (A) (A) (A) (A) (A) (A)
                 (A) (A) (A) (A) (A) (A) (A) (A) (A) (A) (A) (A)
                 (A) (A) (A) (A) (A) (A) (A) (A) (A) (A) (A) (A)
                 (A) (A) (A) (A) (A) (A) (A) (A) (A) (A) (A) (A)
                 (A) (A) (A) (A) (A) (A) (A) (A) (A) (A) (A) (A)
                 (A) (A) (A) (A) (A) (A) (A) (A) (A) (A) (A) (A)
                 (A) (A) (A) (A) (A) (A) (A) (A) (A) (A) (A) (A)
                 (A) (A) (A) (A) (A) (A) (A) (A) (A) (A) (A) (A)
                 (A) (A) (A) (A) (A) (A) (A) (A) (A) (A) (A) (A)
                 (A) (A) (A) (A) (A) (A) (A) (A) (A) (A) (A) (A)
                 (A) (A) (A) (A) (A) (A) (A) (A) (A) (A) (A) (A)
                 (A) (A) (A) (A) (A) (A) (A) (A) (A) (A) (A) (A)
                 (A) (A) (A) (A) (A) (A) (A) (A) (A) (A) (A) (A)
                 (A) (A) (A) (A) (A) (A) (A) (A) (A) (A) (A) (A)
                 (A) (A) (A) (A) (A) (A) (A) (A) (A) (A) (A) (A)
                 (A) (A) (A) (A) (A) (A) (A) (A) (A) (A) (A) (A)
                 (A) (A) (A) (A) (A) (A) (A) (A) (A) (A) (A) (A)
                 (A) (A) (A) (A) (A) (A) (A) (A) (A) (A) (A) (A)
                 (A) (A) (A) (A) (A) (A) (A) (A) (A) (A) (A) (A)
                 (A) (A) (A) (A) (A) (A) (A) (A) (A) (A) (A) (A)
                 (A) (A) (A) (A) (A) (A) (A) (A) (A) (A) (A) (A)
                 (A) (A) (A) (A) (A) (A) (A) (A) (A) (A) (A) (A)
                 (A) (A) (A) (A) (A) (A) (A) (A) (A) (A) (A) (A)
 The electronic state is 1-A.
 Alpha  occ. eigenvalues --  -19.66596 -19.60762 -10.66928 -10.60860 -10.54007
 Alpha  occ. eigenvalues --  -10.52888 -10.52290 -10.52272  -1.23291  -1.14056
 Alpha  occ. eigenvalues --   -0.92146  -0.83905  -0.79128  -0.78791  -0.71433
 Alpha  occ. eigenvalues --   -0.60135  -0.57318  -0.56276  -0.55814  -0.51603
 Alpha  occ. eigenvalues --   -0.50454  -0.49255  -0.47810  -0.47341  -0.45611
 Alpha  occ. eigenvalues --   -0.44192  -0.43369  -0.42445  -0.41152  -0.39583
 Alpha  occ. eigenvalues --   -0.36608  -0.34211
 Alpha virt. eigenvalues --    0.05494   0.05964   0.09024   0.10673   0.11731
 Alpha virt. eigenvalues --    0.12106   0.13448   0.14708   0.14993   0.15398
 Alpha virt. eigenvalues --    0.16353   0.17054   0.18396   0.18577   0.18801
 Alpha virt. eigenvalues --    0.20167   0.20194   0.21063   0.21417   0.23553
 Alpha virt. eigenvalues --    0.24218   0.25793   0.26710   0.29661   0.30792
 Alpha virt. eigenvalues --    0.31886   0.34182   0.34948   0.36033   0.37841
 Alpha virt. eigenvalues --    0.38526   0.39530   0.40100   0.41920   0.42790
 Alpha virt. eigenvalues --    0.44007   0.45142   0.45603   0.47938   0.48249
 Alpha virt. eigenvalues --    0.48361   0.48677   0.49185   0.50251   0.51386
 Alpha virt. eigenvalues --    0.52039   0.52504   0.53215   0.53552   0.54148
 Alpha virt. eigenvalues --    0.56387   0.59195   0.61187   0.61899   0.63692
 Alpha virt. eigenvalues --    0.64513   0.64683   0.68153   0.69304   0.70925
 Alpha virt. eigenvalues --    0.75993   0.77523   0.80023   0.83476   0.84491
 Alpha virt. eigenvalues --    0.86578   0.86809   0.88510   0.89924   0.91337
 Alpha virt. eigenvalues --    0.91863   0.94933   0.97779   0.98319   0.99220
 Alpha virt. eigenvalues --    1.02397   1.03125   1.03609   1.06191   1.07397
 Alpha virt. eigenvalues --    1.13035   1.13974   1.15112   1.16549   1.16813
 Alpha virt. eigenvalues --    1.17763   1.20623   1.26755   1.27258   1.29924
 Alpha virt. eigenvalues --    1.32651   1.36101   1.40465   1.46269   1.47326
 Alpha virt. eigenvalues --    1.50738   1.50918   1.53954   1.54210   1.57255
 Alpha virt. eigenvalues --    1.57708   1.58522   1.58746   1.60690   1.61109
 Alpha virt. eigenvalues --    1.62800   1.63778   1.64999   1.65210   1.66807
 Alpha virt. eigenvalues --    1.67454   1.67731   1.69475   1.70821   1.75478
 Alpha virt. eigenvalues --    1.77212   1.80069   1.81698   1.83351   1.86478
 Alpha virt. eigenvalues --    1.90914   1.93702   1.94283   1.96833   1.98375
 Alpha virt. eigenvalues --    2.00386   2.02703   2.05215   2.07586   2.09140
 Alpha virt. eigenvalues --    2.10942   2.13188   2.13827   2.16522   2.17756
 Alpha virt. eigenvalues --    2.20641   2.20727   2.23750   2.25681   2.29305
 Alpha virt. eigenvalues --    2.29988   2.31236   2.31763   2.34330   2.34942
 Alpha virt. eigenvalues --    2.37360   2.38177   2.39731   2.41145   2.42151
 Alpha virt. eigenvalues --    2.42796   2.43933   2.44817   2.45689   2.49046
 Alpha virt. eigenvalues --    2.51593   2.55237   2.56430   2.57039   2.57759
 Alpha virt. eigenvalues --    2.57876   2.59210   2.61875   2.62975   2.64231
 Alpha virt. eigenvalues --    2.68310   2.68873   2.71546   2.74432   2.76839
 Alpha virt. eigenvalues --    2.78830   2.80383   2.80621   2.84957   2.85312
 Alpha virt. eigenvalues --    2.88410   2.89178   2.91743   2.95580   2.97343
 Alpha virt. eigenvalues --    3.01127   3.02049   3.04447   3.06518   3.08827
 Alpha virt. eigenvalues --    3.11071   3.12205   3.14019   3.15287   3.16555
 Alpha virt. eigenvalues --    3.18354   3.20055   3.20991   3.22263   3.23380
 Alpha virt. eigenvalues --    3.25626   3.29080   3.31274   3.33170   3.33325
 Alpha virt. eigenvalues --    3.34505   3.35316   3.35929   3.36687   3.37674
 Alpha virt. eigenvalues --    3.39255   3.40328   3.41976   3.42839   3.45831
 Alpha virt. eigenvalues --    3.47863   3.52459   3.52872   3.55088   3.57920
 Alpha virt. eigenvalues --    3.60720   3.63960   3.64326   3.67104   3.69146
 Alpha virt. eigenvalues --    3.69768   3.75259   3.80211   3.83172   3.87402
 Alpha virt. eigenvalues --    3.90295   3.95604   3.99734   4.01784   4.02300
 Alpha virt. eigenvalues --    4.05677   4.06337   4.09953   4.11546   4.12671
 Alpha virt. eigenvalues --    4.13285   4.21273   4.28004   4.34799   4.37272
 Alpha virt. eigenvalues --    4.37915   4.41600   4.42311   4.44405   4.46403
 Alpha virt. eigenvalues --    4.47874   4.50874   4.51960   4.63252   4.63597
 Alpha virt. eigenvalues --    4.72652   4.73252   4.81763   4.85096   4.87526
 Alpha virt. eigenvalues --    5.00070   5.20740   5.22914   5.34109   5.44018
 Alpha virt. eigenvalues --    5.51386   5.65100   5.71350   5.82387   6.04903
 Alpha virt. eigenvalues --    6.11296   6.15806   6.20486   6.39989   6.43036
 Alpha virt. eigenvalues --    6.54336   6.68036   6.68861   6.79421   6.84813
 Alpha virt. eigenvalues --    6.96397   7.04399   7.14688   7.34173   7.42240
 Alpha virt. eigenvalues --   22.43318  22.51093  22.54491  22.55832  22.72940
 Alpha virt. eigenvalues --   23.44158  44.06087  44.55825
          Condensed to atoms (all electrons):
               1          2          3          4          5          6
     1  C    5.059071   0.303178  -0.063128  -0.074301   0.009737  -0.002802
     2  C    0.303178   4.530359   0.599523   0.345159  -0.051881  -0.003373
     3  O   -0.063128   0.599523   7.912689  -0.093352   0.051711  -0.035705
     4  O   -0.074301   0.345159  -0.093352   8.037955   0.160670  -0.037747
     5  C    0.009737  -0.051881   0.051711   0.160670   5.085583   0.289603
     6  C   -0.002802  -0.003373  -0.035705  -0.037747   0.289603   5.240830
     7  C   -0.001464  -0.006136  -0.033449  -0.038375   0.290808  -0.092379
     8  C    0.000487  -0.000136   0.001886  -0.058016   0.306396  -0.100065
     9  H    0.417639  -0.046506   0.003171   0.003482  -0.000323  -0.000053
    10  H    0.418105  -0.059545   0.003602   0.009428  -0.000236   0.000494
    11  H    0.381714  -0.012753  -0.000063  -0.000555  -0.000742   0.000493
    12  H    0.000289  -0.002062  -0.000182   0.001994  -0.033306   0.398376
    13  H    0.000077   0.001232   0.000871   0.004861  -0.021613   0.398766
    14  H    0.000655  -0.004492   0.009166  -0.004044  -0.023843   0.409259
    15  H    0.000049  -0.001599  -0.000308   0.001915  -0.032809   0.013732
    16  H    0.000064   0.001421   0.001016   0.004791  -0.021948  -0.008131
    17  H    0.000510  -0.005234   0.008806  -0.003556  -0.023950  -0.012367
    18  H   -0.000179  -0.000332   0.000000  -0.000282  -0.029058   0.013964
    19  H    0.000006   0.000265   0.000087   0.005711  -0.027642  -0.010486
    20  H    0.000095  -0.000761  -0.000005   0.000136  -0.028939  -0.012366
               7          8          9         10         11         12
     1  C   -0.001464   0.000487   0.417639   0.418105   0.381714   0.000289
     2  C   -0.006136  -0.000136  -0.046506  -0.059545  -0.012753  -0.002062
     3  O   -0.033449   0.001886   0.003171   0.003602  -0.000063  -0.000182
     4  O   -0.038375  -0.058016   0.003482   0.009428  -0.000555   0.001994
     5  C    0.290808   0.306396  -0.000323  -0.000236  -0.000742  -0.033306
     6  C   -0.092379  -0.100065  -0.000053   0.000494   0.000493   0.398376
     7  C    5.240636  -0.100284   0.000273   0.000117  -0.000045   0.013751
     8  C   -0.100284   5.153399  -0.000019  -0.000597   0.000066  -0.010726
     9  H    0.000273  -0.000019   0.506801  -0.023304  -0.019395   0.000028
    10  H    0.000117  -0.000597  -0.023304   0.521538  -0.021429  -0.000043
    11  H   -0.000045   0.000066  -0.019395  -0.021429   0.515474  -0.000048
    12  H    0.013751  -0.010726   0.000028  -0.000043  -0.000048   0.523129
    13  H   -0.007512  -0.013014  -0.000001  -0.000008  -0.000014  -0.020558
    14  H   -0.012641   0.012494  -0.000008  -0.000085  -0.000052  -0.021797
    15  H    0.397703  -0.010744  -0.000026   0.000069   0.000010  -0.000537
    16  H    0.398565  -0.012719  -0.000011  -0.000009   0.000001  -0.000133
    17  H    0.409820   0.012483  -0.000008  -0.000142   0.000002  -0.000092
    18  H   -0.012603   0.403918  -0.000004   0.000073   0.000008  -0.000333
    19  H   -0.010333   0.410466  -0.000001   0.000008  -0.000002   0.000697
    20  H    0.014059   0.403185   0.000010  -0.000036  -0.000014   0.002960
              13         14         15         16         17         18
     1  C    0.000077   0.000655   0.000049   0.000064   0.000510  -0.000179
     2  C    0.001232  -0.004492  -0.001599   0.001421  -0.005234  -0.000332
     3  O    0.000871   0.009166  -0.000308   0.001016   0.008806   0.000000
     4  O    0.004861  -0.004044   0.001915   0.004791  -0.003556  -0.000282
     5  C   -0.021613  -0.023843  -0.032809  -0.021948  -0.023950  -0.029058
     6  C    0.398766   0.409259   0.013732  -0.008131  -0.012367   0.013964
     7  C   -0.007512  -0.012641   0.397703   0.398565   0.409820  -0.012603
     8  C   -0.013014   0.012494  -0.010744  -0.012719   0.012483   0.403918
     9  H   -0.000001  -0.000008  -0.000026  -0.000011  -0.000008  -0.000004
    10  H   -0.000008  -0.000085   0.000069  -0.000009  -0.000142   0.000073
    11  H   -0.000014  -0.000052   0.000010   0.000001   0.000002   0.000008
    12  H   -0.020558  -0.021797  -0.000537  -0.000133  -0.000092  -0.000333
    13  H    0.527984  -0.019747  -0.000156   0.000454   0.000511  -0.000084
    14  H   -0.019747   0.468392  -0.000070   0.000591   0.002537  -0.000371
    15  H   -0.000156  -0.000070   0.522983  -0.020752  -0.021500   0.002976
    16  H    0.000454   0.000591  -0.020752   0.528909  -0.019703   0.000544
    17  H    0.000511   0.002537  -0.021500  -0.019703   0.468140  -0.000168
    18  H   -0.000084  -0.000371   0.002976   0.000544  -0.000168   0.516314
    19  H    0.001664  -0.000030   0.000677   0.001585  -0.000031  -0.023377
    20  H    0.000563  -0.000198  -0.000334  -0.000093  -0.000379  -0.021192
              19         20
     1  C    0.000006   0.000095
     2  C    0.000265  -0.000761
     3  O    0.000087  -0.000005
     4  O    0.005711   0.000136
     5  C   -0.027642  -0.028939
     6  C   -0.010486  -0.012366
     7  C   -0.010333   0.014059
     8  C    0.410466   0.403185
     9  H   -0.000001   0.000010
    10  H    0.000008  -0.000036
    11  H   -0.000002  -0.000014
    12  H    0.000697   0.002960
    13  H    0.001664   0.000563
    14  H   -0.000030  -0.000198
    15  H    0.000677  -0.000334
    16  H    0.001585  -0.000093
    17  H   -0.000031  -0.000379
    18  H   -0.023377  -0.021192
    19  H    0.533642  -0.023229
    20  H   -0.023229   0.516279
 Mulliken charges:
               1
     1  C   -0.449800
     2  C    0.413674
     3  O   -0.366335
     4  O   -0.265874
     5  C    0.101782
     6  C   -0.450043
     7  C   -0.450513
     8  C   -0.398461
     9  H    0.158254
    10  H    0.152001
    11  H    0.157345
    12  H    0.148592
    13  H    0.145728
    14  H    0.184286
    15  H    0.148721
    16  H    0.145558
    17  H    0.184320
    18  H    0.150186
    19  H    0.140321
    20  H    0.150260
 Sum of Mulliken charges =  -0.00000
 Mulliken charges with hydrogens summed into heavy atoms:
               1
     1  C    0.017800
     2  C    0.413674
     3  O   -0.366335
     4  O   -0.265874
     5  C    0.101782
     6  C    0.028562
     7  C    0.028085
     8  C    0.042306
 Electronic spatial extent (au):  <R**2>=           1067.4125
 Charge=             -0.0000 electrons
 Dipole moment (field-independent basis, Debye):
    X=              0.9178    Y=              1.7305    Z=              0.0420  Tot=              1.9593
 Quadrupole moment (field-independent basis, Debye-Ang):
   XX=            -46.2311   YY=            -54.0661   ZZ=            -49.3009
   XY=             -4.4157   XZ=             -0.0669   YZ=              0.0744
 Traceless Quadrupole moment (field-independent basis, Debye-Ang):
   XX=              3.6349   YY=             -4.2001   ZZ=              0.5651
   XY=             -4.4157   XZ=             -0.0669   YZ=              0.0744
 Octapole moment (field-independent basis, Debye-Ang**2):
  XXX=            -11.7022  YYY=              3.1397  ZZZ=              0.5384  XYY=              3.0945
  XXY=              6.4722  XXZ=             -0.0130  XZZ=             -4.5880  YZZ=              1.1564
  YYZ=             -0.3926  XYZ=             -0.4784
 Hexadecapole moment (field-independent basis, Debye-Ang**3):
 XXXX=           -841.5416 YYYY=           -325.1829 ZZZZ=           -236.2574 XXXY=            -15.6890
 XXXZ=              2.0055 YYYX=             -4.3897 YYYZ=             -1.4609 ZZZX=             -2.4713
 ZZZY=              0.6956 XXYY=           -210.6898 XXZZ=           -185.0028 YYZZ=            -91.6360
 XXYZ=              1.8809 YYXZ=              0.6859 ZZXY=              2.2863
 N-N= 4.128336667174D+02 E-N=-1.727027296752D+03  KE= 3.845048503576D+02
   1 Symmetry operations used in ECPInt.
 ECPInt:  NShTT=    9316 NPrTT=   27240 LenC2=    9152 LenP2D=   21482.
 LDataN:  DoStor=T MaxTD1= 7 Len=  274
 Calling FoFJK, ICntrl=      2127 FMM=F ISym2X=0 I1Cent= 0 IOpClX= 0 NMat=1 NMatS=1 NMatT=0.
 ***** Axes restored to original set *****
 -------------------------------------------------------------------
 Center     Atomic                   Forces (Hartrees/Bohr)
 Number     Number              X              Y              Z
 -------------------------------------------------------------------
      1        6          -0.002132483   -0.002069309    0.001561650
      2        6           0.009787171   -0.002487220    0.000646714
      3        8          -0.001375606    0.003867566   -0.000123556
      4        8          -0.007142804    0.003255646   -0.000208057
      5        6          -0.007897770   -0.004783807   -0.000409711
      6        6           0.004673933    0.001916233    0.003247837
      7        6           0.004803532    0.002037213   -0.003077321
      8        6           0.007539995   -0.003853096    0.000018947
      9        1           0.000260403   -0.000954148   -0.000031796
     10        1           0.000925517    0.001156191   -0.000114170
     11        1           0.000258549    0.000270116   -0.001449983
     12        1          -0.000473655    0.001261749   -0.001767048
     13        1          -0.002682020   -0.000099514   -0.000067885
     14        1          -0.000433723   -0.001002269   -0.000544681
     15        1          -0.000493911    0.001198159    0.001798663
     16        1          -0.002687139   -0.000090987    0.000003505
     17        1          -0.000459255   -0.001031604    0.000513329
     18        1          -0.000158596    0.001267003    0.002070266
     19        1          -0.002188935   -0.001184475   -0.000038344
     20        1          -0.000123204    0.001326554   -0.002028361
 -------------------------------------------------------------------
 Cartesian Forces:  Max     0.009787171 RMS     0.002807201

 GradGradGradGradGradGradGradGradGradGradGradGradGradGradGradGradGradGrad
 Berny optimization.
 FormGI is forming the generalized inverse of G from B-inverse, IUseBI=4.
 Internal  Forces:  Max     0.006608945 RMS     0.001551074
 Search for a local minimum.
 Step number   1 out of a maximum of  101
 All quantities printed in internal units (Hartrees-Bohrs-Radians)
 Mixed Optimization -- RFO/linear search
 Second derivative matrix not updated -- first step.
 ITU=  0
     Eigenvalues ---    0.00383   0.00394   0.00394   0.00620   0.01012
     Eigenvalues ---    0.01140   0.02626   0.04381   0.05684   0.05686
     Eigenvalues ---    0.05696   0.05721   0.05755   0.05755   0.05796
     Eigenvalues ---    0.06762   0.07294   0.07612   0.16000   0.16000
     Eigenvalues ---    0.16000   0.16000   0.16000   0.16000   0.16000
     Eigenvalues ---    0.16000   0.16000   0.16000   0.16000   0.16000
     Eigenvalues ---    0.16021   0.16529   0.24999   0.25000   0.25000
     Eigenvalues ---    0.29518   0.29596   0.29596   0.31249   0.35002
     Eigenvalues ---    0.35035   0.35039   0.35187   0.35187   0.35220
     Eigenvalues ---    0.35226   0.35234   0.35237   0.35278   0.35296
     Eigenvalues ---    0.35377   0.38065   0.59650   1.02965
 RFO step:  Lambda=-1.07722010D-03 EMin= 3.82648136D-03
 Linear search not attempted -- first point.
 Iteration  1 RMS(Cart)=  0.02669867 RMS(Int)=  0.00039488
 Iteration  2 RMS(Cart)=  0.00049321 RMS(Int)=  0.00006530
 Iteration  3 RMS(Cart)=  0.00000017 RMS(Int)=  0.00006530
 Variable       Old X    -DE/DX   Delta X   Delta X   Delta X     New X
                                 (Linear)    (Quad)   (Total)
    R1        2.85540  -0.00151   0.00000  -0.00482  -0.00482   2.85057
    R2        2.05226   0.00057   0.00000   0.00162   0.00162   2.05389
    R3        2.05067   0.00077   0.00000   0.00218   0.00218   2.05285
    R4        2.05671   0.00148   0.00000   0.00421   0.00421   2.06092
    R5        2.27474  -0.00394   0.00000  -0.00382  -0.00382   2.27092
    R6        2.51218   0.00661   0.00000   0.01106   0.01106   2.52324
    R7        2.74270   0.00184   0.00000   0.00483   0.00483   2.74753
    R8        2.88776  -0.00196   0.00000  -0.00661  -0.00661   2.88115
    R9        2.88776  -0.00196   0.00000  -0.00660  -0.00660   2.88116
   R10        2.88935  -0.00512   0.00000  -0.01728  -0.01728   2.87207
   R11        2.05618   0.00206   0.00000   0.00586   0.00586   2.06204
   R12        2.05292   0.00254   0.00000   0.00719   0.00719   2.06011
   R13        2.05318   0.00049   0.00000   0.00140   0.00140   2.05458
   R14        2.05611   0.00206   0.00000   0.00585   0.00585   2.06197
   R15        2.05296   0.00254   0.00000   0.00719   0.00719   2.06015
   R16        2.05309   0.00049   0.00000   0.00139   0.00139   2.05448
   R17        2.05372   0.00238   0.00000   0.00674   0.00674   2.06046
   R18        2.05198   0.00246   0.00000   0.00695   0.00695   2.05893
   R19        2.05373   0.00237   0.00000   0.00673   0.00673   2.06046
    A1        1.91154  -0.00118   0.00000  -0.00757  -0.00759   1.90396
    A2        1.92705   0.00219   0.00000   0.01527   0.01528   1.94233
    A3        1.89252  -0.00047   0.00000  -0.00426  -0.00428   1.88824
    A4        1.93595  -0.00006   0.00000   0.00226   0.00226   1.93821
    A5        1.89200   0.00015   0.00000  -0.00255  -0.00259   1.88941
    A6        1.90390  -0.00069   0.00000  -0.00363  -0.00362   1.90028
    A7        2.16379  -0.00107   0.00000  -0.00437  -0.00462   2.15917
    A8        1.92168   0.00476   0.00000   0.01880   0.01855   1.94024
    A9        2.19765  -0.00369   0.00000  -0.01486  -0.01511   2.18254
   A10        2.12348   0.00158   0.00000   0.00628   0.00628   2.12976
   A11        1.92266   0.00038   0.00000   0.00567   0.00546   1.92812
   A12        1.92251   0.00031   0.00000   0.00496   0.00475   1.92726
   A13        1.81628  -0.00137   0.00000  -0.02365  -0.02364   1.79264
   A14        1.93926   0.00100   0.00000   0.01732   0.01726   1.95652
   A15        1.92971  -0.00024   0.00000  -0.00333  -0.00333   1.92639
   A16        1.92989  -0.00023   0.00000  -0.00348  -0.00349   1.92640
   A17        1.92151   0.00009   0.00000   0.00039   0.00032   1.92182
   A18        1.91337  -0.00119   0.00000  -0.01070  -0.01071   1.90266
   A19        1.92623   0.00171   0.00000   0.01409   0.01407   1.94030
   A20        1.90090  -0.00023   0.00000  -0.00833  -0.00839   1.89251
   A21        1.90036  -0.00019   0.00000   0.00519   0.00511   1.90546
   A22        1.90113  -0.00020   0.00000  -0.00083  -0.00079   1.90034
   A23        1.92143   0.00009   0.00000   0.00041   0.00033   1.92176
   A24        1.91331  -0.00123   0.00000  -0.01098  -0.01098   1.90233
   A25        1.92613   0.00174   0.00000   0.01433   0.01431   1.94043
   A26        1.90111  -0.00022   0.00000  -0.00829  -0.00835   1.89276
   A27        1.90004  -0.00020   0.00000   0.00521   0.00513   1.90516
   A28        1.90148  -0.00020   0.00000  -0.00087  -0.00083   1.90066
   A29        1.92088   0.00053   0.00000   0.00428   0.00427   1.92515
   A30        1.92039  -0.00084   0.00000  -0.00717  -0.00716   1.91323
   A31        1.92095   0.00051   0.00000   0.00415   0.00414   1.92509
   A32        1.90374  -0.00006   0.00000  -0.00225  -0.00224   1.90150
   A33        1.89359  -0.00009   0.00000   0.00330   0.00326   1.89685
   A34        1.90391  -0.00006   0.00000  -0.00228  -0.00228   1.90164
    D1       -0.61331   0.00036   0.00000   0.00904   0.00898  -0.60432
    D2        2.53983   0.00086   0.00000   0.04858   0.04860   2.58843
    D3       -2.75004  -0.00022   0.00000   0.00122   0.00119  -2.74885
    D4        0.40310   0.00028   0.00000   0.04077   0.04080   0.44390
    D5        1.44821  -0.00039   0.00000  -0.00079  -0.00080   1.44741
    D6       -1.68184   0.00011   0.00000   0.03876   0.03881  -1.64303
    D7        3.11611  -0.00044   0.00000  -0.02731  -0.02720   3.08891
    D8       -0.01367   0.00005   0.00000   0.01308   0.01297  -0.00070
    D9       -1.06734  -0.00087   0.00000  -0.01488  -0.01488  -1.08222
   D10        1.07798   0.00086   0.00000   0.01414   0.01413   1.09212
   D11       -3.13620  -0.00001   0.00000  -0.00063  -0.00063  -3.13683
   D12       -0.95826   0.00046   0.00000   0.02794   0.02798  -0.93028
   D13       -3.04908   0.00143   0.00000   0.04466   0.04467  -3.00441
   D14        1.14004   0.00137   0.00000   0.04366   0.04373   1.18377
   D15       -3.09373  -0.00089   0.00000   0.00597   0.00594  -3.08779
   D16        1.09863   0.00009   0.00000   0.02268   0.02263   1.12126
   D17       -0.99544   0.00003   0.00000   0.02168   0.02169  -0.97374
   D18        1.03965  -0.00112   0.00000   0.00064   0.00062   1.04027
   D19       -1.05118  -0.00015   0.00000   0.01736   0.01731  -1.03387
   D20        3.13794  -0.00021   0.00000   0.01636   0.01637  -3.12887
   D21        0.95845  -0.00048   0.00000  -0.02910  -0.02913   0.92932
   D22        3.04946  -0.00146   0.00000  -0.04593  -0.04594   3.00353
   D23       -1.13933  -0.00140   0.00000  -0.04500  -0.04507  -1.18440
   D24        3.09401   0.00090   0.00000  -0.00672  -0.00669   3.08732
   D25       -1.09816  -0.00008   0.00000  -0.02355  -0.02350  -1.12166
   D26        0.99623  -0.00002   0.00000  -0.02262  -0.02263   0.97360
   D27       -1.03947   0.00113   0.00000  -0.00130  -0.00128  -1.04074
   D28        1.05154   0.00015   0.00000  -0.01813  -0.01808   1.03346
   D29       -3.13725   0.00021   0.00000  -0.01720  -0.01722   3.12872
   D30       -1.04448  -0.00025   0.00000  -0.00389  -0.00390  -1.04838
   D31        3.14033   0.00002   0.00000   0.00072   0.00072   3.14105
   D32        1.04169   0.00030   0.00000   0.00546   0.00547   1.04716
   D33       -3.10850   0.00019   0.00000   0.00433   0.00428  -3.10422
   D34        1.07631   0.00046   0.00000   0.00894   0.00890   1.08521
   D35       -1.02233   0.00074   0.00000   0.01368   0.01365  -1.00868
   D36        1.01946  -0.00076   0.00000  -0.01302  -0.01299   1.00646
   D37       -1.07892  -0.00049   0.00000  -0.00841  -0.00837  -1.08729
   D38        3.10563  -0.00021   0.00000  -0.00367  -0.00362   3.10201
         Item               Value     Threshold  Converged?
 Maximum Force            0.006609     0.000450     NO 
 RMS     Force            0.001551     0.000300     NO 
 Maximum Displacement     0.081091     0.001800     NO 
 RMS     Displacement     0.026628     0.001200     NO 
 Predicted change in Energy=-5.526078D-04
 GradGradGradGradGradGradGradGradGradGradGradGradGradGradGradGradGradGrad

                          Input orientation:                          
 ---------------------------------------------------------------------
 Center     Atomic      Atomic             Coordinates (Angstroms)
 Number     Number       Type             X           Y           Z
 ---------------------------------------------------------------------
      1          6           0        2.566622    0.897213   -0.004573
      2          6           0        1.365739   -0.014865    0.033402
      3          8           0        1.438015   -1.214148    0.008234
      4          8           0        0.228592    0.684972    0.034141
      5          6           0       -1.073911    0.039679    0.002650
      6          6           0       -1.237341   -0.769410   -1.279220
      7          6           0       -1.274842   -0.814350    1.249565
      8          6           0       -2.031898    1.219557    0.009404
      9          1           0        3.386136    0.428475    0.533911
     10          1           0        2.333869    1.873252    0.411680
     11          1           0        2.867872    1.020241   -1.045490
     12          1           0       -1.033674   -0.141280   -2.147928
     13          1           0       -2.265294   -1.126338   -1.345326
     14          1           0       -0.566371   -1.624820   -1.291866
     15          1           0       -1.096871   -0.217671    2.145612
     16          1           0       -2.304312   -1.172355    1.272355
     17          1           0       -0.604282   -1.670103    1.251762
     18          1           0       -1.887806    1.818748    0.908886
     19          1           0       -3.059071    0.856941   -0.013341
     20          1           0       -1.859962    1.851412   -0.862407
 ---------------------------------------------------------------------
                    Distance matrix (angstroms):
                    1          2          3          4          5
     1  C    0.000000
     2  C    1.508459   0.000000
     3  O    2.394110   1.201722   0.000000
     4  O    2.347962   1.335244   2.251673   0.000000
     5  C    3.740173   2.440453   2.807469   1.453929   0.000000
     6  C    4.344248   3.011368   3.002142   2.447265   1.524639
     7  C    4.388525   3.015110   3.010038   2.446535   1.524642
     8  C    4.609825   3.615012   4.238304   2.322975   1.519835
     9  H    1.086869   2.128160   2.601869   3.207124   4.508372
    10  H    1.086321   2.155309   3.239963   2.446780   3.891306
    11  H    1.090594   2.119401   2.854351   2.871203   4.194968
    12  H    4.316777   3.245207   3.450989   2.652816   2.158554
    13  H    5.407382   4.039884   3.943898   3.376868   2.143835
    14  H    4.222963   2.842769   2.424144   2.779461   2.168854
    15  H    4.391747   3.250693   3.462224   2.651401   2.158481
    16  H    5.444232   4.042779   3.950286   3.376158   2.143610
    17  H    4.268972   2.846962   2.434180   2.778967   2.168913
    18  H    4.639564   3.835904   4.590284   2.555340   2.156101
    19  H    5.625844   4.510120   4.951127   3.292501   2.146866
    20  H    4.608798   3.832834   4.586101   2.554690   2.156056
                    6          7          8          9         10
     6  C    0.000000
     7  C    2.529462   0.000000
     8  C    2.499572   2.499582   0.000000
     9  H    5.108709   4.876626   5.500547   0.000000
    10  H    4.753561   4.576903   4.432727   1.791533   0.000000
    11  H    4.484446   5.078885   5.016002   1.764452   1.770913
    12  H    1.091184   3.471908   2.739052   5.201115   4.685112
    13  H    1.090163   2.794958   2.719005   6.155293   5.765146
    14  H    1.087239   2.760012   3.454208   4.813708   4.852831
    15  H    3.471833   1.091146   2.739213   4.807540   4.375895
    16  H    2.794875   1.090182   2.718547   5.957278   5.615088
    17  H    2.760051   1.087184   3.454226   4.565388   4.679084
    18  H    3.451010   2.724883   1.090349   5.466985   4.251202
    19  H    2.750667   2.751658   1.089537   6.482574   5.504301
    20  H    2.725821   3.450953   1.090347   5.612130   4.383149
                   11         12         13         14         15
    11  H    0.000000
    12  H    4.217412   0.000000
    13  H    5.571992   1.769575   0.000000
    14  H    4.341782   1.775418   1.771351   0.000000
    15  H    5.237819   4.294685   3.791772   3.752034   0.000000
    16  H    6.077119   3.791566   2.618376   3.130558   1.769722
    17  H    4.956931   3.752275   3.130416   2.544313   1.775154
    18  H    5.203236   3.730329   3.727934   4.295074   2.510393
    19  H    6.018360   3.107272   2.517471   3.742636   3.109036
    20  H    4.803830   2.511202   3.043763   3.733899   3.729824
                   16         17         18         19         20
    16  H    0.000000
    17  H    1.771520   0.000000
    18  H    3.041757   3.733240   0.000000
    19  H    2.518079   3.743318   1.774102   0.000000
    20  H    3.727978   4.295056   1.771812   1.774189   0.000000
 Stoichiometry    C6H12O2
 Framework group  C1[X(C6H12O2)]
 Deg. of freedom    54
 Full point group                 C1      NOp   1
 Largest Abelian subgroup         C1      NOp   1
 Largest concise Abelian subgroup C1      NOp   1
                         Standard orientation:                         
 ---------------------------------------------------------------------
 Center     Atomic      Atomic             Coordinates (Angstroms)
 Number     Number       Type             X           Y           Z
 ---------------------------------------------------------------------
      1          6           0       -2.644733    0.775996   -0.003623
      2          6           0       -1.408190   -0.087528   -0.030770
      3          8           0       -1.432344   -1.288406    0.007224
      4          8           0       -0.300025    0.657316   -0.038061
      5          6           0        1.027268    0.065167    0.001473
      6          6           0        1.221370   -0.722946    1.292104
      7          6           0        1.263887   -0.793412   -1.236019
      8          6           0        1.937175    1.282385   -0.017144
      9          1           0       -3.444098    0.269022   -0.537736
     10          1           0       -2.450777    1.756075   -0.430143
     11          1           0       -2.952010    0.897976    1.035654
     12          1           0        0.991562   -0.094229    2.153837
     13          1           0        2.262725   -1.037621    1.362918
     14          1           0        0.585229   -1.604400    1.313371
     15          1           0        1.063279   -0.213979   -2.138579
     16          1           0        2.306915   -1.110055   -1.254082
     17          1           0        0.628189   -1.675351   -1.229590
     18          1           0        1.770321    1.865651   -0.923136
     19          1           0        2.978034    0.961532    0.010373
     20          1           0        1.738918    1.916131    0.847679
 ---------------------------------------------------------------------
 Rotational constants (GHZ):           3.3314595           1.4458761           1.3088384
 Standard basis: def2TZVP (5D, 7F)
 There are   360 symmetry adapted cartesian basis functions of A   symmetry.
 There are   320 symmetry adapted basis functions of A   symmetry.
   320 basis functions,   504 primitive gaussians,   360 cartesian basis functions
    32 alpha electrons       32 beta electrons
       nuclear repulsion energy       412.5545501100 Hartrees.
 NAtoms=   20 NActive=   20 NUniq=   20 SFac= 1.00D+00 NAtFMM=   60 NAOKFM=F Big=F
 Integral buffers will be    131072 words long.
 Raffenetti 2 integral format.
 Two-electron integral symmetry is turned on.
 One-electron integrals computed using PRISM.
   1 Symmetry operations used in ECPInt.
 ECPInt:  NShTT=    9316 NPrTT=   27240 LenC2=    9150 LenP2D=   21477.
 LDataN:  DoStor=T MaxTD1= 6 Len=  172
 NBasis=   320 RedAO= T EigKep=  2.05D-04  NBF=   320
 NBsUse=   320 1.00D-06 EigRej= -1.00D+00 NBFU=   320
 Initial guess from the checkpoint file:  "/home/svss/projects/Project-Philicity/GS/hydrocarbon/set-1/GS/mol_23_hc/mol_23_hc.chk"
 B after Tr=    -0.000000    0.000000   -0.000000
         Rot=    0.999983    0.003981    0.001063   -0.004178 Ang=   0.67 deg.
 ExpMin= 9.52D-02 ExpMax= 2.70D+04 ExpMxC= 9.22D+02 IAcc=3 IRadAn=         5 AccDes= 0.00D+00
 Harris functional with IExCor= 1009 and IRadAn=       5 diagonalized for initial guess.
 HarFok:  IExCor= 1009 AccDes= 0.00D+00 IRadAn=         5 IDoV= 1 UseB2=F ITyADJ=14
 ICtDFT=  3500011 ScaDFX=  1.000000  1.000000  1.000000  1.000000
 FoFCou: FMM=F IPFlag=           0 FMFlag=      100000 FMFlg1=           0
         NFxFlg=           0 DoJE=T BraDBF=F KetDBF=T FulRan=T
         wScrn=  0.000000 ICntrl=       500 IOpCl=  0 I1Cent=   200000004 NGrid=           0
         NMat0=    1 NMatS0=      1 NMatT0=    0 NMatD0=    1 NMtDS0=    0 NMtDT0=    0
 Petite list used in FoFCou.
 Requested convergence on RMS density matrix=1.00D-08 within 128 cycles.
 Requested convergence on MAX density matrix=1.00D-06.
 Requested convergence on             energy=1.00D-06.
 No special actions if energy rises.
 Integral accuracy reduced to 1.0D-05 until final iterations.
 Initial convergence to 1.0D-05 achieved.  Increase integral accuracy.
 SCF Done:  E(RM062X) =  -386.314214278     A.U. after   11 cycles
            NFock= 11  Conv=0.47D-08     -V/T= 2.0048
   1 Symmetry operations used in ECPInt.
 ECPInt:  NShTT=    9316 NPrTT=   27240 LenC2=    9150 LenP2D=   21477.
 LDataN:  DoStor=T MaxTD1= 7 Len=  274
 Calling FoFJK, ICntrl=      2127 FMM=F ISym2X=0 I1Cent= 0 IOpClX= 0 NMat=1 NMatS=1 NMatT=0.
 ***** Axes restored to original set *****
 -------------------------------------------------------------------
 Center     Atomic                   Forces (Hartrees/Bohr)
 Number     Number              X              Y              Z
 -------------------------------------------------------------------
      1        6          -0.001297862   -0.000646081    0.002126490
      2        6           0.001715045   -0.001352431   -0.004880932
      3        8          -0.000550208    0.000052796    0.001997324
      4        8           0.000867487    0.002345591    0.001152146
      5        6          -0.001307399   -0.001154908    0.000033744
      6        6           0.001764761    0.000243413    0.001244727
      7        6           0.001689258    0.000308016   -0.001202385
      8        6          -0.000334165   -0.000094005    0.000018296
      9        1          -0.000031582   -0.000136180   -0.000126364
     10        1           0.000340065    0.000233357   -0.000081511
     11        1          -0.000488416    0.000028473   -0.000198487
     12        1          -0.000160751   -0.000010471    0.000111732
     13        1          -0.000390180    0.000016638   -0.000178184
     14        1          -0.000120104   -0.000120739   -0.000135647
     15        1          -0.000149627   -0.000001123   -0.000140265
     16        1          -0.000381192   -0.000039169    0.000201868
     17        1          -0.000063805   -0.000161350    0.000086569
     18        1          -0.000231540   -0.000005567   -0.000151018
     19        1          -0.000626680    0.000492055   -0.000012791
     20        1          -0.000243104    0.000001686    0.000134689
 -------------------------------------------------------------------
 Cartesian Forces:  Max     0.004880932 RMS     0.001009898

 GradGradGradGradGradGradGradGradGradGradGradGradGradGradGradGradGradGrad
 Berny optimization.
 Using GEDIIS/GDIIS optimizer.
 FormGI is forming the generalized inverse of G from B-inverse, IUseBI=4.
 Internal  Forces:  Max     0.004954722 RMS     0.000708466
 Search for a local minimum.
 Step number   2 out of a maximum of  101
 All quantities printed in internal units (Hartrees-Bohrs-Radians)
 Mixed Optimization -- En-DIIS/RFO-DIIS
 Update second derivatives using D2CorX and points    1    2
 DE= -4.48D-04 DEPred=-5.53D-04 R= 8.10D-01
 TightC=F SS=  1.41D+00  RLast= 1.56D-01 DXNew= 5.0454D-01 4.6742D-01
 Trust test= 8.10D-01 RLast= 1.56D-01 DXMaxT set to 4.67D-01
 ITU=  1  0
 Use linear search instead of GDIIS.
     Eigenvalues ---    0.00382   0.00383   0.00394   0.00598   0.01012
     Eigenvalues ---    0.01378   0.02623   0.04177   0.05445   0.05584
     Eigenvalues ---    0.05661   0.05722   0.05736   0.05825   0.06635
     Eigenvalues ---    0.07032   0.07206   0.07630   0.14891   0.16000
     Eigenvalues ---    0.16000   0.16000   0.16000   0.16000   0.16000
     Eigenvalues ---    0.16000   0.16000   0.16000   0.16000   0.16028
     Eigenvalues ---    0.16223   0.16619   0.22613   0.24982   0.27263
     Eigenvalues ---    0.29010   0.29596   0.30829   0.32049   0.34960
     Eigenvalues ---    0.35030   0.35037   0.35102   0.35187   0.35220
     Eigenvalues ---    0.35226   0.35236   0.35276   0.35276   0.35375
     Eigenvalues ---    0.36139   0.37968   0.58658   1.02711
 RFO step:  Lambda=-4.80733227D-04 EMin= 3.82020163D-03
 Quartic linear search produced a step of -0.14308.
 Iteration  1 RMS(Cart)=  0.02419276 RMS(Int)=  0.00056830
 Iteration  2 RMS(Cart)=  0.00087396 RMS(Int)=  0.00028144
 Iteration  3 RMS(Cart)=  0.00000049 RMS(Int)=  0.00028144
 Variable       Old X    -DE/DX   Delta X   Delta X   Delta X     New X
                                 (Linear)    (Quad)   (Total)
    R1        2.85057  -0.00153   0.00069  -0.00703  -0.00634   2.84423
    R2        2.05389  -0.00003  -0.00023   0.00089   0.00066   2.05454
    R3        2.05285   0.00011  -0.00031   0.00155   0.00124   2.05409
    R4        2.06092   0.00006  -0.00060   0.00264   0.00204   2.06296
    R5        2.27092  -0.00013   0.00055  -0.00237  -0.00183   2.26910
    R6        2.52324   0.00068  -0.00158   0.00753   0.00595   2.52919
    R7        2.74753   0.00073  -0.00069   0.00451   0.00382   2.75134
    R8        2.88115  -0.00106   0.00095  -0.00698  -0.00603   2.87512
    R9        2.88116  -0.00106   0.00094  -0.00698  -0.00603   2.87512
   R10        2.87207   0.00121   0.00247  -0.00676  -0.00429   2.86778
   R11        2.06204  -0.00013  -0.00084   0.00317   0.00233   2.06437
   R12        2.06011   0.00037  -0.00103   0.00517   0.00414   2.06425
   R13        2.05458   0.00002  -0.00020   0.00089   0.00069   2.05527
   R14        2.06197  -0.00014  -0.00084   0.00313   0.00229   2.06426
   R15        2.06015   0.00038  -0.00103   0.00517   0.00414   2.06429
   R16        2.05448   0.00009  -0.00020   0.00104   0.00084   2.05532
   R17        2.06046  -0.00016  -0.00096   0.00361   0.00265   2.06311
   R18        2.05893   0.00043  -0.00099   0.00516   0.00416   2.06309
   R19        2.06046  -0.00015  -0.00096   0.00364   0.00267   2.06313
    A1        1.90396  -0.00010   0.00109  -0.00461  -0.00354   1.90041
    A2        1.94233   0.00073  -0.00219   0.01322   0.01103   1.95336
    A3        1.88824  -0.00076   0.00061  -0.00727  -0.00665   1.88159
    A4        1.93821  -0.00007  -0.00032   0.00226   0.00193   1.94014
    A5        1.88941   0.00029   0.00037  -0.00058  -0.00023   1.88918
    A6        1.90028  -0.00012   0.00052  -0.00362  -0.00308   1.89719
    A7        2.15917   0.00070   0.00066   0.00120   0.00032   2.15949
    A8        1.94024   0.00005  -0.00265   0.01282   0.00863   1.94887
    A9        2.18254  -0.00067   0.00216  -0.00946  -0.00882   2.17372
   A10        2.12976  -0.00495  -0.00090  -0.01316  -0.01405   2.11571
   A11        1.92812  -0.00046  -0.00078  -0.00300  -0.00374   1.92438
   A12        1.92726  -0.00046  -0.00068  -0.00332  -0.00396   1.92330
   A13        1.79264   0.00077   0.00338  -0.00553  -0.00214   1.79050
   A14        1.95652   0.00005  -0.00247   0.00758   0.00511   1.96163
   A15        1.92639   0.00006   0.00048   0.00146   0.00192   1.92830
   A16        1.92640   0.00009   0.00050   0.00163   0.00211   1.92850
   A17        1.92182  -0.00013  -0.00005  -0.00074  -0.00079   1.92103
   A18        1.90266   0.00002   0.00153  -0.00656  -0.00503   1.89763
   A19        1.94030   0.00034  -0.00201   0.01069   0.00867   1.94897
   A20        1.89251  -0.00011   0.00120  -0.00679  -0.00560   1.88691
   A21        1.90546  -0.00002  -0.00073   0.00349   0.00275   1.90821
   A22        1.90034  -0.00011   0.00011  -0.00055  -0.00043   1.89992
   A23        1.92176  -0.00015  -0.00005  -0.00087  -0.00093   1.92083
   A24        1.90233   0.00013   0.00157  -0.00607  -0.00450   1.89783
   A25        1.94043   0.00025  -0.00205   0.01027   0.00822   1.94865
   A26        1.89276  -0.00012   0.00119  -0.00662  -0.00544   1.88732
   A27        1.90516   0.00001  -0.00073   0.00350   0.00276   1.90792
   A28        1.90066  -0.00012   0.00012  -0.00064  -0.00052   1.90013
   A29        1.92515   0.00010  -0.00061   0.00300   0.00239   1.92754
   A30        1.91323   0.00088   0.00102   0.00063   0.00165   1.91488
   A31        1.92509   0.00012  -0.00059   0.00299   0.00239   1.92748
   A32        1.90150  -0.00048   0.00032  -0.00368  -0.00336   1.89813
   A33        1.89685  -0.00016  -0.00047   0.00071   0.00024   1.89709
   A34        1.90164  -0.00049   0.00033  -0.00381  -0.00349   1.89815
    D1       -0.60432   0.00111  -0.00129   0.08323   0.08201  -0.52231
    D2        2.58843  -0.00051  -0.00695  -0.01053  -0.01755   2.57088
    D3       -2.74885   0.00078  -0.00017   0.07477   0.07466  -2.67419
    D4        0.44390  -0.00084  -0.00584  -0.01898  -0.02490   0.41900
    D5        1.44741   0.00097   0.00012   0.07591   0.07611   1.52352
    D6       -1.64303  -0.00065  -0.00555  -0.01784  -0.02345  -1.66647
    D7        3.08891   0.00081   0.00389   0.04236   0.04598   3.13489
    D8       -0.00070  -0.00089  -0.00186  -0.05329  -0.05487  -0.05557
    D9       -1.08222   0.00020   0.00213  -0.00970  -0.00758  -1.08980
   D10        1.09212  -0.00039  -0.00202  -0.00447  -0.00649   1.08563
   D11       -3.13683  -0.00007   0.00009  -0.00706  -0.00697   3.13939
   D12       -0.93028  -0.00061  -0.00400   0.01254   0.00853  -0.92175
   D13       -3.00441  -0.00041  -0.00639   0.02524   0.01884  -2.98557
   D14        1.18377  -0.00050  -0.00626   0.02352   0.01726   1.20102
   D15       -3.08779   0.00030  -0.00085   0.01360   0.01276  -3.07503
   D16        1.12126   0.00050  -0.00324   0.02631   0.02307   1.14433
   D17       -0.97374   0.00040  -0.00310   0.02458   0.02149  -0.95226
   D18        1.04027   0.00010  -0.00009   0.00502   0.00493   1.04519
   D19       -1.03387   0.00030  -0.00248   0.01772   0.01524  -1.01863
   D20       -3.12887   0.00020  -0.00234   0.01599   0.01365  -3.11522
   D21        0.92932   0.00060   0.00417  -0.01252  -0.00835   0.92098
   D22        3.00353   0.00043   0.00657  -0.02480  -0.01821   2.98531
   D23       -1.18440   0.00052   0.00645  -0.02313  -0.01668  -1.20107
   D24        3.08732  -0.00031   0.00096  -0.01340  -0.01245   3.07486
   D25       -1.12166  -0.00047   0.00336  -0.02568  -0.02232  -1.14399
   D26        0.97360  -0.00038   0.00324  -0.02401  -0.02079   0.95281
   D27       -1.04074  -0.00013   0.00018  -0.00491  -0.00473  -1.04547
   D28        1.03346  -0.00029   0.00259  -0.01719  -0.01460   1.01886
   D29        3.12872  -0.00020   0.00246  -0.01552  -0.01306   3.11566
   D30       -1.04838   0.00002   0.00056  -0.00237  -0.00181  -1.05019
   D31        3.14105  -0.00001  -0.00010  -0.00009  -0.00019   3.14086
   D32        1.04716  -0.00003  -0.00078   0.00236   0.00158   1.04874
   D33       -3.10422   0.00012  -0.00061   0.00342   0.00281  -3.10141
   D34        1.08521   0.00008  -0.00127   0.00570   0.00443   1.08964
   D35       -1.00868   0.00006  -0.00195   0.00815   0.00620  -1.00248
   D36        1.00646  -0.00006   0.00186  -0.00845  -0.00660   0.99987
   D37       -1.08729  -0.00009   0.00120  -0.00617  -0.00498  -1.09227
   D38        3.10201  -0.00011   0.00052  -0.00372  -0.00321   3.09880
         Item               Value     Threshold  Converged?
 Maximum Force            0.004955     0.000450     NO 
 RMS     Force            0.000708     0.000300     NO 
 Maximum Displacement     0.078650     0.001800     NO 
 RMS     Displacement     0.023962     0.001200     NO 
 Predicted change in Energy=-2.629374D-04
 GradGradGradGradGradGradGradGradGradGradGradGradGradGradGradGradGradGrad

                          Input orientation:                          
 ---------------------------------------------------------------------
 Center     Atomic      Atomic             Coordinates (Angstroms)
 Number     Number       Type             X           Y           Z
 ---------------------------------------------------------------------
      1          6           0        2.568037    0.890324    0.008654
      2          6           0        1.358201   -0.004985    0.001242
      3          8           0        1.415593   -1.203736    0.040148
      4          8           0        0.221138    0.700956    0.006449
      5          6           0       -1.076746    0.041341   -0.007477
      6          6           0       -1.242274   -0.768824   -1.284598
      7          6           0       -1.248098   -0.807338    1.243598
      8          6           0       -2.042715    1.211671    0.007954
      9          1           0        3.365694    0.399474    0.560787
     10          1           0        2.346102    1.868903    0.426564
     11          1           0        2.895773    1.017239   -1.024899
     12          1           0       -1.045564   -0.139693   -2.155731
     13          1           0       -2.274769   -1.120193   -1.345660
     14          1           0       -0.576609   -1.628708   -1.303781
     15          1           0       -1.055251   -0.204948    2.134208
     16          1           0       -2.280723   -1.160739    1.289180
     17          1           0       -0.581932   -1.667073    1.239599
     18          1           0       -1.895468    1.815764    0.905343
     19          1           0       -3.069785    0.841620   -0.001459
     20          1           0       -1.889394    1.844096   -0.868673
 ---------------------------------------------------------------------
                    Distance matrix (angstroms):
                    1          2          3          4          5
     1  C    0.000000
     2  C    1.505103   0.000000
     3  O    2.390440   1.200754   0.000000
     4  O    2.354528   1.338392   2.248490   0.000000
     5  C    3.742389   2.435403   2.786438   1.455949   0.000000
     6  C    4.352442   2.999885   3.001393   2.443078   1.521448
     7  C    4.355460   2.996667   2.949690   2.442159   1.521449
     8  C    4.621937   3.611998   4.218426   2.320746   1.517566
     9  H    1.087217   2.122900   2.577642   3.207245   4.492934
    10  H    1.086978   2.160626   3.233617   2.460909   3.904391
    11  H    1.091673   2.112353   2.873672   2.883989   4.215262
    12  H    4.336313   3.232456   3.465742   2.643151   2.156094
    13  H    5.415636   4.031911   3.942868   3.372585   2.138961
    14  H    4.237547   2.843071   2.440413   2.789344   2.172465
    15  H    4.341177   3.227117   3.389356   2.641437   2.155908
    16  H    5.418218   4.029432   3.901882   3.372034   2.139130
    17  H    4.240024   2.839046   2.375599   2.788035   2.172261
    18  H    4.645791   3.836521   4.563887   2.555549   2.156879
    19  H    5.638041   4.508193   4.929891   3.293937   2.147716
    20  H    4.641991   3.837021   4.586739   2.554790   2.156845
                    6          7          8          9         10
     6  C    0.000000
     7  C    2.528495   0.000000
     8  C    2.496749   2.496924   0.000000
     9  H    5.099386   4.817645   5.496925   0.000000
    10  H    4.770967   4.555007   4.457455   1.793546   0.000000
    11  H    4.514522   5.064270   5.049085   1.765463   1.770371
    12  H    1.092417   3.470188   2.738982   5.208586   4.712336
    13  H    1.092352   2.802888   2.706235   6.144815   5.781689
    14  H    1.087602   2.759472   3.455122   4.809562   4.875410
    15  H    3.470039   1.092360   2.739134   4.731357   4.334295
    16  H    2.802910   1.092376   2.706754   5.903122   5.597353
    17  H    2.759433   1.087629   3.455141   4.507233   4.662353
    18  H    3.450015   2.722897   1.091750   5.459343   4.268838
    19  H    2.753138   2.754591   1.091741   6.475107   5.529046
    20  H    2.723804   3.450080   1.091762   5.634381   4.429186
                   11         12         13         14         15
    11  H    0.000000
    12  H    4.260448   0.000000
    13  H    5.604107   1.768768   0.000000
    14  H    4.374500   1.778456   1.773158   0.000000
    15  H    5.204257   4.290447   3.799260   3.751794   0.000000
    16  H    6.074098   3.799417   2.635159   3.137905   1.769008
    17  H    4.942460   3.751815   3.138206   2.543675   1.778247
    18  H    5.226803   3.730459   3.718969   4.299304   2.509851
    19  H    6.055258   3.114696   2.507516   3.743593   3.116845
    20  H    4.858593   2.510774   3.027051   3.738060   3.729836
                   16         17         18         19         20
    16  H    0.000000
    17  H    1.773337   0.000000
    18  H    3.025776   3.737279   0.000000
    19  H    2.509543   3.744753   1.774899   0.000000
    20  H    3.720014   4.299136   1.774253   1.774920   0.000000
 Stoichiometry    C6H12O2
 Framework group  C1[X(C6H12O2)]
 Deg. of freedom    54
 Full point group                 C1      NOp   1
 Largest Abelian subgroup         C1      NOp   1
 Largest concise Abelian subgroup C1      NOp   1
                         Standard orientation:                         
 ---------------------------------------------------------------------
 Center     Atomic      Atomic             Coordinates (Angstroms)
 Number     Number       Type             X           Y           Z
 ---------------------------------------------------------------------
      1          6           0       -2.648677    0.766238   -0.009924
      2          6           0       -1.404066   -0.079864    0.009792
      3          8           0       -1.413824   -1.280531   -0.000957
      4          8           0       -0.296121    0.670391   -0.019665
      5          6           0        1.027103    0.063384    0.000496
      6          6           0        1.232517   -0.709451    1.294844
      7          6           0        1.224628   -0.806864   -1.231762
      8          6           0        1.945506    1.270495   -0.048740
      9          1           0       -3.429433    0.231288   -0.544984
     10          1           0       -2.468481    1.742815   -0.451906
     11          1           0       -2.974977    0.904184    1.022670
     12          1           0        1.016123   -0.068417    2.152529
     13          1           0        2.278556   -1.017984    1.356837
     14          1           0        0.601812   -1.594425    1.338555
     15          1           0        1.002537   -0.233623   -2.134714
     16          1           0        2.270235   -1.119918   -1.276336
     17          1           0        0.593325   -1.692064   -1.203231
     18          1           0        1.768869    1.847091   -0.958825
     19          1           0        2.986558    0.941875   -0.037910
     20          1           0        1.772367    1.916672    0.814060
 ---------------------------------------------------------------------
 Rotational constants (GHZ):           3.3475620           1.4506466           1.3151797
 Standard basis: def2TZVP (5D, 7F)
 There are   360 symmetry adapted cartesian basis functions of A   symmetry.
 There are   320 symmetry adapted basis functions of A   symmetry.
   320 basis functions,   504 primitive gaussians,   360 cartesian basis functions
    32 alpha electrons       32 beta electrons
       nuclear repulsion energy       413.0973423709 Hartrees.
 NAtoms=   20 NActive=   20 NUniq=   20 SFac= 1.00D+00 NAtFMM=   60 NAOKFM=F Big=F
 Integral buffers will be    131072 words long.
 Raffenetti 2 integral format.
 Two-electron integral symmetry is turned on.
 One-electron integrals computed using PRISM.
   1 Symmetry operations used in ECPInt.
 ECPInt:  NShTT=    9316 NPrTT=   27240 LenC2=    9153 LenP2D=   21482.
 LDataN:  DoStor=T MaxTD1= 6 Len=  172
 NBasis=   320 RedAO= T EigKep=  2.02D-04  NBF=   320
 NBsUse=   320 1.00D-06 EigRej= -1.00D+00 NBFU=   320
 Initial guess from the checkpoint file:  "/home/svss/projects/Project-Philicity/GS/hydrocarbon/set-1/GS/mol_23_hc/mol_23_hc.chk"
 B after Tr=     0.000000   -0.000000   -0.000000
         Rot=    0.999984    0.004475   -0.003292    0.000454 Ang=   0.64 deg.
 ExpMin= 9.52D-02 ExpMax= 2.70D+04 ExpMxC= 9.22D+02 IAcc=3 IRadAn=         5 AccDes= 0.00D+00
 Harris functional with IExCor= 1009 and IRadAn=       5 diagonalized for initial guess.
 HarFok:  IExCor= 1009 AccDes= 0.00D+00 IRadAn=         5 IDoV= 1 UseB2=F ITyADJ=14
 ICtDFT=  3500011 ScaDFX=  1.000000  1.000000  1.000000  1.000000
 FoFCou: FMM=F IPFlag=           0 FMFlag=      100000 FMFlg1=           0
         NFxFlg=           0 DoJE=T BraDBF=F KetDBF=T FulRan=T
         wScrn=  0.000000 ICntrl=       500 IOpCl=  0 I1Cent=   200000004 NGrid=           0
         NMat0=    1 NMatS0=      1 NMatT0=    0 NMatD0=    1 NMtDS0=    0 NMtDT0=    0
 Petite list used in FoFCou.
 Requested convergence on RMS density matrix=1.00D-08 within 128 cycles.
 Requested convergence on MAX density matrix=1.00D-06.
 Requested convergence on             energy=1.00D-06.
 No special actions if energy rises.
 Integral accuracy reduced to 1.0D-05 until final iterations.
 Initial convergence to 1.0D-05 achieved.  Increase integral accuracy.
 SCF Done:  E(RM062X) =  -386.313998763     A.U. after   11 cycles
            NFock= 11  Conv=0.63D-08     -V/T= 2.0048
   1 Symmetry operations used in ECPInt.
 ECPInt:  NShTT=    9316 NPrTT=   27240 LenC2=    9153 LenP2D=   21482.
 LDataN:  DoStor=T MaxTD1= 7 Len=  274
 Calling FoFJK, ICntrl=      2127 FMM=F ISym2X=0 I1Cent= 0 IOpClX= 0 NMat=1 NMatS=1 NMatT=0.
 ***** Axes restored to original set *****
 -------------------------------------------------------------------
 Center     Atomic                   Forces (Hartrees/Bohr)
 Number     Number              X              Y              Z
 -------------------------------------------------------------------
      1        6           0.000200772    0.000229220   -0.003781829
      2        6          -0.002400820    0.000183330    0.010957142
      3        8           0.001133259   -0.001761919   -0.004261486
      4        8           0.003375463    0.001327509   -0.003335664
      5        6           0.002016136    0.000335416    0.000113785
[...]
 770,-0.00113286,0.00079362,-0.00003683,-0.00155246,-0.00614560,0.00012
 901,0.00037073,0.00232215,-0.00005952,-0.05438362,0.02597423,-0.001474
 65,-0.11266010,0.05540021,-0.00181777,0.00359456,0.00268025,0.00343193
 ,0.00428412,0.00169930,-0.00332866,0.55544120,-0.00083145,0.00059074,-
 0.00002621,-0.00083782,-0.00452490,0.00008856,-0.00010211,0.00235064,-
 0.00004285,-0.01530417,0.01139316,-0.00045678,0.06861546,-0.15605081,0
 .00285440,0.01420408,-0.02269544,-0.00490949,0.01311438,-0.02115717,0.
 00623000,0.05434621,0.53202723,0.00000191,-0.00000116,0.00003319,0.000
 00113,0.00000637,-0.00032538,-0.00000199,-0.00000506,0.00063585,-0.000
 49524,0.00017157,0.00192050,-0.00213098,0.00265405,-0.07983680,0.01905
 947,-0.02636088,-0.00177105,-0.01949497,0.02733491,-0.00400069,-0.0018
 8038,0.00230204,0.59394151,-0.24412688,0.12775423,-0.00597364,-0.02039
 191,0.01987581,-0.00073508,0.00397289,0.00008504,0.00006554,-0.0072592
 3,-0.00412787,-0.00002974,0.00102649,0.00123034,-0.00002718,-0.0002484
 4,-0.00000662,0.00007633,-0.00024179,-0.00000833,-0.00008218,-0.000350
 27,-0.00028253,0.00000184,0.26455942,0.13590970,-0.13696529,0.00415165
 ,-0.01727158,0.01177954,-0.00060402,0.00077099,0.00095960,-0.00002542,
 -0.00537280,-0.00186635,-0.00000978,-0.00033199,0.00070395,-0.00000141
 ,-0.00003630,0.00004898,0.00007043,-0.00004029,0.00004264,-0.00007559,
 -0.00022927,-0.00019948,0.00000046,-0.14105117,0.14360345,-0.00616739,
 0.00402922,-0.04829773,0.00014200,-0.00004696,-0.00279657,0.00005054,-
 0.00003414,-0.00056494,-0.00000086,0.00000933,0.00117035,0.00000998,0.
 00002272,0.00087338,0.00013144,0.00005987,-0.00003866,-0.00013585,-0.0
 0006411,-0.00003872,0.00000061,-0.00000035,-0.00003286,0.00662856,-0.0
 0443188,0.04627527,-0.04868410,0.00756452,0.00777287,0.00469420,-0.013
 79605,-0.02630274,-0.00264361,-0.00353410,0.00364892,-0.00121362,0.000
 76474,0.00201645,0.00013824,0.00001521,0.00049633,0.00007336,0.0000286
 6,0.00002689,-0.00013976,-0.00010514,-0.00005233,0.00002098,-0.0000375
 7,-0.00003747,0.00122802,0.01437190,0.02242848,0.04741969,0.00721086,-
 0.14440631,-0.13709599,0.00334353,-0.01483294,-0.01770292,-0.00420884,
 -0.00224759,0.00290853,0.00136894,0.00096630,0.00125171,-0.00038258,-0
 .00003344,0.00060839,0.00023268,0.00001334,0.00000492,-0.00010076,-0.0
 0013618,-0.00002630,-0.00000792,0.00000416,0.00000085,-0.00145758,-0.0
 0929492,-0.01256134,-0.00564200,0.15706083,0.00801702,-0.13527734,-0.2
 1729861,0.00080819,0.00059021,0.00103745,0.00021003,0.00154171,-0.0008
 3506,-0.00009568,0.00052543,0.00039936,-0.00029088,0.00002021,0.000191
 21,0.00007336,0.00004402,-0.00004096,-0.00003181,-0.00001875,0.0000035
 4,-0.00001657,-0.00001508,-0.00000941,0.00055012,0.00275543,0.00226320
 ,-0.00997069,0.14694111,0.23479812,-0.04836530,0.00330298,-0.00275365,
 0.00391881,-0.01251783,0.02702242,-0.00253337,-0.00366273,-0.00353117,
 -0.00115186,0.00068245,-0.00209842,0.00014451,-0.00000836,-0.00049752,
 -0.00014191,-0.00010315,0.00005271,0.00007641,0.00002868,-0.00002462,0
 .00001939,-0.00003602,0.00004014,0.00193032,0.01336296,-0.02308610,-0.
 00082736,-0.00030603,0.00076749,0.04699254,0.00287880,-0.13171470,0.13
 319393,0.00276103,-0.01399463,0.01852272,-0.00412923,-0.00246348,-0.00
 295678,0.00140959,0.00088310,-0.00123400,-0.00034992,-0.00006312,-0.00
 060768,-0.00009987,-0.00013379,0.00002973,0.00022918,0.00001102,-0.000
 00040,-0.00000702,0.00000484,-0.00000173,-0.00186828,-0.00879697,0.013
 01659,0.00016503,0.01270133,-0.01716368,-0.00094248,0.14336785,-0.0029
 7339,0.13138995,-0.23032464,-0.00085606,-0.00025743,0.00097742,-0.0000
 6710,-0.00157626,-0.00073304,-0.00001870,-0.00052910,0.00042238,0.0003
 0635,-0.00000818,0.00021490,0.00003213,0.00002228,0.00000378,-0.000080
 79,-0.00004568,-0.00004181,0.00001780,0.00001333,-0.00000833,-0.000474
 60,-0.00183185,0.00106604,-0.00016957,0.01558887,-0.02054313,0.0042640
 7,-0.14270724,0.24892914,-0.00001508,-0.00002957,-0.00002101,-0.000453
 35,0.00049696,-0.00027273,-0.00019230,-0.00037955,0.00023844,0.0010591
 8,0.00062521,-0.00016821,-0.00149093,0.00132432,-0.00424174,-0.0574405
 7,-0.02825562,0.04468580,0.00004324,-0.00028427,-0.00071170,-0.0002655
 6,-0.00018931,0.00044003,0.00001301,-0.00000247,0.00000307,0.00000442,
 -0.00001019,0.00001954,-0.00003998,-0.00005430,-0.00002074,0.05732980,
 0.00004265,0.00007782,-0.00004483,-0.00045576,0.00010056,0.00039647,0.
 00044252,0.00015709,-0.00008160,0.00178725,0.00122440,0.00098694,0.004
 30914,0.00925361,-0.01634312,-0.02962717,-0.12956717,0.12199849,-0.000
 47089,-0.00192192,-0.00278056,-0.00024873,0.00128237,-0.00048198,0.000
 00656,-0.00000272,0.00000522,0.00000535,0.00000214,-0.00002161,0.00002
 321,0.00004615,0.00001652,0.03253827,0.13724680,-0.00004551,0.00000730
 ,-0.00005254,-0.00087375,0.00080422,-0.00044331,-0.00021200,-0.0004643
 4,0.00002168,0.00105862,0.00061589,0.00301664,0.00679667,0.01655423,-0
 .02454384,0.04380644,0.11867474,-0.22320439,-0.00129125,-0.00488806,-0
 .00333911,-0.00046749,0.00150051,0.00068514,0.00000134,-0.00001742,0.0
 0000339,0.00000691,0.00000040,-0.00000100,-0.00006096,-0.00004353,-0.0
 0000181,-0.04832629,-0.12958453,0.24535995,-0.00001306,-0.00009320,0.0
 0020372,0.00066697,0.00065409,0.00042318,-0.00079001,-0.00030264,-0.00
 097963,0.00130737,0.00004902,-0.00122811,-0.00526789,-0.00054819,0.001
 26785,-0.28915807,-0.08199085,-0.01436570,-0.00009406,0.00004449,0.000
 40993,-0.00016055,0.00067509,0.00069186,-0.00001689,0.00000043,0.00000
 305,-0.00000291,0.00000854,-0.00001234,-0.00004611,-0.00002499,0.00000
 988,-0.00479367,-0.00080747,-0.00043554,0.31333156,-0.00018568,0.00019
 875,-0.00001889,0.00239512,-0.00339176,-0.00007251,0.00083950,0.001802
 08,0.00095789,-0.00422712,-0.00208074,-0.00467197,-0.01692824,-0.00609
 616,0.00198404,-0.07955382,-0.07273266,-0.00559682,0.00011318,0.000267
 99,0.00058065,-0.00044955,0.00028980,0.00056287,-0.00008988,-0.0000386
 8,0.00002286,0.00001171,0.00004509,0.00002514,0.00002210,0.00004092,-0
 .00000701,-0.01608158,-0.00593987,-0.00218959,0.08933276,0.07699825,-0
 .00022938,0.00009562,0.00019923,0.00183481,-0.00198913,-0.00011497,-0.
 00025516,0.00103544,-0.00022038,-0.00431958,-0.00408971,-0.00445247,-0
 .02498840,-0.00620462,0.00022379,-0.01201799,-0.00451880,-0.04779046,0
 .00007491,0.00040647,0.00075423,-0.00038367,0.00053465,0.00083741,-0.0
 0008980,-0.00003269,0.00003395,0.00001834,0.00005251,0.00003302,-0.000
 06304,-0.00005082,-0.00001419,0.02565457,0.00725572,0.00264209,0.01485
 940,0.00775922,0.04968649,-0.00000631,0.00014786,-0.00000452,0.0002000
 2,-0.00232162,-0.00037513,-0.00337774,0.00063300,-0.00183456,-0.000419
 36,0.00127045,0.00064595,0.00263804,-0.00443209,0.00064923,-0.15125848
 ,0.13707726,-0.00338815,-0.00028353,-0.00013851,0.00002192,0.00047372,
 -0.00055643,-0.00044053,-0.00000907,0.00000293,-0.00000584,0.00003571,
 0.00002490,0.00000302,0.00003402,0.00000795,0.00001061,0.00529390,-0.0
 0758616,-0.00037852,-0.01649388,0.02372740,-0.00096422,0.16226281,-0.0
 0009813,0.00025535,-0.00030394,0.00028327,-0.00308966,-0.00048118,0.00
 160009,0.00182900,0.00168889,-0.00129274,0.00147400,0.00085838,0.01225
 815,-0.01528921,0.00131901,0.13386279,-0.22334856,0.00719261,-0.000439
 61,0.00062788,0.00110095,-0.00147266,-0.00116413,-0.00351591,-0.000044
 74,-0.00001899,-0.00000332,0.00002200,0.00000452,0.00003098,0.00008339
 ,0.00005465,-0.00002452,0.00987018,-0.01243218,-0.00049638,-0.00749036
 ,0.01078770,-0.00031218,-0.14790323,0.23996139,-0.00007434,0.00028829,
 -0.00012886,0.00024946,-0.00240719,0.00014950,-0.00105043,0.00123745,-
 0.00087424,-0.00106896,0.00204472,0.00124452,0.02005886,-0.02149038,0.
 00104942,-0.00622917,0.01024863,-0.04871456,0.00053531,-0.00060538,0.0
 0180034,-0.00137793,-0.00264258,-0.00488359,-0.00003217,-0.00001527,0.
 00001374,0.00003648,0.00001591,-0.00000143,0.00006070,0.00006821,0.000
 00966,-0.01724472,0.01975896,0.00004333,-0.00052538,0.00106471,-0.0012
 7212,0.00631303,-0.00648779,0.05180128,-0.00001711,-0.00002796,0.00002
 365,-0.00048732,0.00053117,0.00024638,-0.00018956,-0.00040287,-0.00022
 758,0.00108984,0.00064863,0.00007959,-0.00142844,0.00206587,0.00486650
 ,-0.00002252,-0.00039627,0.00083612,-0.05500198,-0.02664134,-0.0385775
 4,-0.00026714,-0.00016532,-0.00046132,0.00001312,-0.00000314,-0.000002
 64,-0.00004236,-0.00005446,0.00002209,0.00000523,-0.00001108,-0.000018
 85,0.00056093,0.00005095,0.00026065,0.00026199,0.00015916,0.00021216,0
 .00004227,-0.00020370,-0.00018389,0.05467829,0.00004356,0.00007925,0.0
 0003972,-0.00040196,0.00004454,-0.00043191,0.00044876,0.00018174,0.000
 08905,0.00176189,0.00115417,-0.00084470,0.00353522,0.00916727,0.014854
 27,-0.00048920,-0.00156120,0.00268183,-0.02786852,-0.14119864,-0.12679
 555,-0.00024069,0.00123239,0.00044771,0.00000665,-0.00000212,-0.000004
 76,0.00002652,0.00004726,-0.00001808,0.00000436,0.00000312,0.00002156,
 0.00001220,0.00077045,0.00084733,0.00011486,-0.00010720,0.00004819,-0.
 00015124,0.00002416,0.00020647,0.03074266,0.14978921,0.00004459,-0.000
 01448,-0.00005213,0.00089339,-0.00081076,-0.00035095,0.00018507,0.0004
 4480,-0.00000490,-0.00120350,-0.00050983,0.00305852,-0.00629639,-0.018
 10478,-0.02452231,0.00141884,0.00479516,-0.00363526,-0.03763396,-0.123
 43277,-0.21401013,0.00045022,-0.00153088,0.00073390,-0.00000137,0.0000
 1761,0.00000269,0.00005858,0.00003960,-0.00000052,-0.00000697,-0.00000
 093,-0.00000280,-0.00019660,-0.00095836,-0.00157780,-0.00010571,0.0000
 7362,0.00031365,-0.00002123,0.00010517,0.00022112,0.04135858,0.1351173
 1,0.23547096,-0.00001379,-0.00010017,-0.00020571,0.00073629,0.00057188
 ,-0.00042490,-0.00082730,-0.00022378,0.00097229,0.00113119,-0.00001001
 ,0.00140299,-0.00599573,-0.00080447,-0.00142098,-0.00007958,0.00003541
 ,-0.00043691,-0.28994327,-0.08137119,0.01098572,-0.00014912,0.00065751
 ,-0.00075661,-0.00001951,-0.00000078,-0.00000463,-0.00004773,-0.000026
 97,-0.00000959,-0.00000270,0.00001066,0.00001078,0.00026555,0.00012067
 ,0.00009893,0.00045297,0.00014766,0.00021872,-0.00015049,-0.00011258,-
 0.00001081,-0.00405306,-0.00058015,0.00026569,0.31421799,-0.00017521,0
 .00019511,0.00001358,0.00230136,-0.00328594,0.00029409,0.00088222,0.00
 170438,-0.00102370,-0.00415345,-0.00167442,0.00441784,-0.01566561,-0.0
 0588501,-0.00216521,0.00012687,0.00022088,-0.00055094,-0.07908009,-0.0
 7221672,0.00438557,-0.00041503,0.00023912,-0.00054600,-0.00008492,-0.0
 0003811,-0.00002203,0.00002485,0.00004358,0.00000497,0.00001158,0.0000
 4146,-0.00002522,0.00015035,-0.00011167,-0.00004854,0.00013560,0.00035
 221,0.00004040,0.00011778,-0.00002360,0.00000196,-0.01735146,-0.006162
 50,0.00208808,0.08878074,0.07622484,0.00023136,-0.00009807,0.00020392,
 -0.00191841,0.00215592,-0.00029292,0.00019474,-0.00113366,-0.00008469,
 0.00469204,0.00395998,-0.00468177,0.02558192,0.00647870,0.00073928,-0.
 00010660,-0.00038053,0.00078408,0.00852689,0.00323781,-0.04752417,0.00
 037465,-0.00048546,0.00087839,0.00009227,0.00003613,0.00003603,0.00006
 105,0.00004734,-0.00001522,-0.00002005,-0.00005266,0.00003648,-0.00022
 169,-0.00002441,0.00031417,-0.00018673,-0.00009282,-0.00082379,0.00011
 789,-0.00005534,-0.00001171,-0.02506943,-0.00686058,0.00212458,-0.0111
 6168,-0.00636017,0.04957682,-0.00000892,0.00015719,0.00000120,0.000196
 57,-0.00237695,0.00049000,-0.00345957,0.00075670,0.00171834,-0.0004335
 5,0.00129780,-0.00075874,0.00326954,-0.00512010,-0.00034351,-0.0002639
 3,-0.00016034,-0.00007743,-0.15111115,0.13709923,-0.00621272,0.0004130
 6,-0.00060681,0.00063231,-0.00001027,0.00000267,0.00000496,0.00003626,
 0.00000964,-0.00001021,0.00003694,0.00002525,-0.00000313,0.00003560,-0
 .00014399,0.00002240,-0.00014783,0.00011197,-0.00012763,0.00029497,0.0
 0010690,-0.00017034,0.00476334,-0.00697841,0.00085259,-0.01650185,0.02
 377944,-0.00062218,0.16216242,-0.00010326,0.00025562,0.00028269,0.0002
 5675,-0.00294866,0.00063640,0.00169798,0.00168775,-0.00175849,-0.00121
 833,0.00133502,-0.00089760,0.01130761,-0.01428903,-0.00025273,-0.00043
 244,0.00060741,-0.00105874,0.13392980,-0.22375122,0.00515476,-0.001504
 96,-0.00088089,0.00327945,-0.00004336,-0.00001807,0.00000350,0.0000797
 3,0.00005263,0.00002483,0.00002123,0.00000237,-0.00003057,-0.00019200,
 0.00000963,-0.00010128,-0.00011362,-0.00002125,0.00005311,0.00010390,0
 .00049525,0.00036011,0.01064312,-0.01331910,0.00145132,-0.00744952,0.0
 1072743,-0.00048181,-0.14791188,0.24011330,0.00008276,-0.00030164,-0.0
 0012603,-0.00025896,0.00248025,0.00001125,0.00089164,-0.00133456,-0.00
 064779,0.00107629,-0.00200686,0.00139228,-0.02052455,0.02207022,-0.000
 57476,-0.00057754,0.00065706,0.00180341,-0.00322461,0.00219361,-0.0484
 7200,0.00161441,0.00243647,-0.00510436,0.00003355,0.00001689,0.0000140
 0,-0.00006367,-0.00006992,0.00000958,-0.00003638,-0.00001536,-0.000000
 39,0.00018714,-0.00020062,0.00024236,0.00001144,0.00000154,-0.00001763
 ,0.00019537,-0.00041160,-0.00067318,0.01687463,-0.01934143,0.00145733,
 0.00042110,-0.00092109,-0.00120181,0.00404084,-0.00691183,0.05175565,0
 .00005261,-0.00002355,0.00003914,-0.00049058,0.00078399,-0.00001641,0.
 00005745,-0.00060687,0.00001485,0.00243676,-0.00038234,0.00001247,0.00
 121797,0.01286562,0.01805947,-0.00286553,0.00278564,-0.00066827,0.0003
 6912,-0.00088037,0.00086381,-0.05176328,-0.02300028,-0.03133732,0.0000
 2413,-0.00000722,-0.00001143,-0.00004233,-0.00000374,-0.00002417,-0.00
 000980,0.00000301,0.00001401,-0.00007217,-0.00007562,-0.00022306,0.000
 33404,0.00020193,0.00001361,0.00045510,0.00093251,0.00093818,0.0001788
 4,-0.00003767,-0.00035274,-0.00000871,-0.00007407,-0.00017456,-0.00013
 317,-0.00015624,0.00010633,0.05283795,0.00001768,-0.00002285,-0.000071
 18,0.00029886,-0.00034778,0.00013493,-0.00000384,0.00038797,0.00014332
 ,-0.00187106,0.00133273,0.00109313,-0.00517397,-0.01631358,-0.02193384
 ,0.00408817,-0.00371616,0.00142944,-0.00079663,0.00111534,-0.00133047,
 -0.02068397,-0.13742383,-0.12471791,0.00000217,0.00000504,-0.00000290,
 0.00000944,0.00001160,-0.00000296,0.00000660,0.00000808,0.00000551,0.0
 0009449,0.00012136,-0.00016644,0.00009832,0.00026274,0.00033962,-0.000
 05284,-0.00065005,-0.00164936,0.00036466,-0.00024460,0.00094395,-0.000
 00108,-0.00013147,0.00002342,0.00013233,0.00037744,0.00020577,0.020896
 64,0.15012293,0.00003087,-0.00000288,-0.00004001,0.00022779,-0.0001465
 5,0.00007161,-0.00003995,0.00035936,0.00002932,0.00028572,0.00060884,0
 .00047324,-0.00025648,0.00082042,-0.00070313,0.00060640,-0.00020294,0.
 00093299,-0.00006996,0.00075881,0.00074829,-0.02957632,-0.12687429,-0.
 22388173,0.00000883,0.00002588,0.00000566,0.00003625,-0.00001293,0.000
 03230,0.00001415,-0.00001531,-0.00002494,-0.00019729,0.00016504,0.0003
 8664,-0.00011627,0.00020858,-0.00001261,-0.00026279,-0.00019848,0.0001
 7021,-0.00026666,0.00011798,0.00038725,0.00019528,-0.00001832,-0.00001
 395,0.00015395,0.00003788,0.00012509,0.03324518,0.13844850,0.23989761,
 -0.00031557,0.00025094,-0.00000970,0.00141697,-0.00272101,0.00007822,-
 0.00015042,0.00150553,-0.00003535,-0.00620589,0.00456093,-0.00021716,-
 0.01701199,-0.01105609,0.00003604,0.00023971,-0.00115948,-0.00032019,0
 .00023318,-0.00114062,0.00038791,-0.28809906,-0.08447424,-0.00172109,-
 0.00011719,-0.00006873,-0.00000023,0.00000184,0.00000007,0.00000472,0.
 00000215,-0.00000028,-0.00000478,-0.00000305,0.00010741,-0.00008363,0.
 00063789,0.00051951,0.00037457,0.00039316,0.00019820,-0.00011729,-0.00
 000029,0.00011172,0.00007909,0.00065783,0.00048175,-0.00037821,0.00038
 587,0.00020566,0.00012116,-0.00237744,-0.00043283,0.00007603,0.3134654
 5,0.00031503,-0.00025184,0.00000909,0.00064842,0.00147166,-0.00001199,
 -0.00019356,-0.00028746,-0.00000072,0.00644472,-0.00316410,0.00019501,
 0.02026087,0.00918850,0.00003980,-0.00008219,0.00065081,0.00015242,-0.
 00008567,0.00064122,-0.00019381,-0.08891946,-0.07953883,-0.00058226,0.
 00010283,0.00009453,-0.00000056,0.00001910,-0.00000989,0.00002037,0.00
 001949,-0.00001062,-0.00001912,-0.00003734,-0.00002346,-0.00010445,0.0
 0026697,-0.00050607,-0.00040503,-0.00010274,0.00013708,0.00021627,-0.0
 0004716,-0.00001988,0.00010356,0.00024133,-0.00045570,0.00043461,-0.00
 009040,0.00012385,-0.00022818,-0.01689705,-0.00620774,0.00171283,0.093
 78030,0.08410616,-0.00001110,0.00000800,-0.00007497,-0.00000238,-0.000
 06274,0.00057105,0.00000537,0.00002491,-0.00019519,-0.00025974,0.00016
 579,0.00090380,-0.00070421,-0.00044192,-0.00233690,0.00019056,-0.00000
 848,-0.00017485,-0.00017495,-0.00006641,-0.00016099,-0.00161630,-0.000
 51417,-0.04635640,-0.00000428,-0.00000317,0.00000493,0.00000290,-0.000
 00450,0.00000374,-0.00000389,0.00000517,0.00000420,0.00015311,0.000024
 68,-0.00000557,0.00026944,-0.00061220,0.00000926,-0.00011375,0.0000487
 2,-0.00007245,-0.00015104,-0.00001992,-0.00001112,-0.00026068,0.000649
 46,-0.00006087,0.00013252,-0.00005131,-0.00005191,-0.02503057,-0.00732
 949,0.00093950,0.00190159,0.00053225,0.04561785,0.00005472,-0.00002541
 ,-0.00003498,-0.00048307,0.00077899,-0.00003825,0.00005613,-0.00059571
 ,0.00001445,0.00244239,-0.00036100,0.00006269,0.00176570,0.01200928,-0
 .01855528,0.00039139,-0.00089716,-0.00083181,-0.00285941,0.00280155,0.
 00041997,-0.05383373,-0.02518866,0.03788921,0.00002407,-0.00000586,0.0
 0001229,-0.00000894,0.00000191,-0.00001362,-0.00004192,-0.00000307,0.0
 0002210,0.00016101,-0.00001819,0.00034604,-0.00000786,-0.00006613,0.00
 017779,-0.00012486,-0.00015973,-0.00010657,-0.00008405,-0.00006056,0.0
 0021183,0.00033103,0.00020728,-0.00001327,0.00047568,0.00087984,-0.000
 97096,-0.00020096,0.00300686,-0.00409473,-0.00315316,-0.01564351,0.025
 67740,0.05509585,0.00001406,-0.00001932,0.00007061,0.00029136,-0.00034
 597,-0.00010625,0.00000259,0.00036347,-0.00015915,-0.00184831,0.001249
 41,-0.00118683,-0.00583524,-0.01527608,0.02244121,-0.00083285,0.001139
 74,0.00128721,0.00408808,-0.00375924,-0.00108210,-0.02289113,-0.125778
 98,0.11945261,0.00000165,0.00000394,0.00000304,0.00000611,0.00000848,-
 0.00000693,0.00000757,0.00001241,0.00000416,0.00040420,-0.00029342,-0.
 00090005,-0.00000885,-0.00013116,-0.00001798,0.00013142,0.00036539,-0.
 00021374,0.00009854,0.00012166,0.00018263,0.00011482,0.00023612,-0.000
 34839,-0.00009025,-0.00055948,0.00168128,0.00367567,0.01131282,-0.0157
 9242,-0.00066874,-0.00593824,0.00765533,0.02333928,0.13728844,-0.00002
 865,0.00000109,-0.00004556,-0.00025912,0.00019021,0.00006159,0.0000406
 6,-0.00039398,0.00005577,-0.00013735,-0.00065769,0.00055181,0.00060759
 ,0.00023843,-0.00229035,0.00009701,-0.00080427,0.00069972,-0.00091714,
 0.00051261,0.00096974,0.03601748,0.12153819,-0.23345529,-0.00000836,-0
 .00002600,0.00000685,-0.00001398,0.00001377,-0.00002617,-0.00003891,0.
 00001377,0.00003107,0.00024102,-0.00008641,0.00045396,-0.00019434,0.00
 002070,-0.00001449,-0.00016779,-0.00005409,0.00012903,0.00017860,-0.00
 015450,0.00039793,0.00012102,-0.00021473,0.00001715,0.00027679,0.00026
 031,0.00005891,0.00453147,0.01443697,-0.01952335,-0.00017170,-0.001870
 11,0.00144688,-0.04017429,-0.13296425,0.25047479\\-0.00000913,0.000005
 31,-0.00000378,0.00000723,-0.00000700,0.00000141,0.00000133,0.00000316
 ,0.00000064,-0.00001863,0.00000357,0.00000014,0.00001475,0.00000490,-0
 .00000181,0.00000116,-0.00000129,-0.00000257,-0.00000111,-0.00000488,0
 .00000206,-0.00000174,-0.00000045,0.00000017,0.00000082,0.00000257,0.0
 0000062,0.00000031,0.00000062,0.00000052,0.00000054,0.00000117,0.00000
 084,-0.00000077,-0.00000134,-0.00000015,0.00000221,-0.00000231,0.00000
 019,0.00000087,-0.00000020,-0.00000011,0.00000116,-0.00000143,0.000000
 10,0.00000188,0.00000007,0.00000071,0.00000113,0.00000019,0.00000090,-
 0.00000244,-0.00000052,-0.00000023,0.00000187,-0.00000161,-0.00000032,
 -0.00000144,-0.00000053,0.00000067\\\@
 The archive entry for this job was punched.


 PICNIC:  A SNACK IN THE GRASS.
 Job cpu time:       0 days  1 hours 24 minutes 20.7 seconds.
 Elapsed time:       0 days  0 hours 10 minutes 38.4 seconds.
 File lengths (MBytes):  RWF=    227 Int=      0 D2E=      0 Chk=     10 Scr=      2
 Normal termination of Gaussian 16 at Mon Jun 20 18:50:25 2022.
