 Entering Gaussian System, Link 0=/opt/apps/Gaussian/G16C/g16/g16
 Input=/home/svss/projects/Project-Philicity/GS/hydrocarbon/set-1/GS/mol_28_hc/mol_28_hc.com
 Output=/home/svss/projects/Project-Philicity/GS/hydrocarbon/set-1/GS/mol_28_hc/mol_28_hc.log
 Initial command:
 /opt/apps/Gaussian/G16C/g16/l1.exe "/home/svss/projects/Project-Philicity/GS/hydrocarbon/set-1/Gau-264659.inp" -scrdir="/home/svss/projects/Project-Philicity/GS/hydrocarbon/set-1/"
 Entering Link 1 = /opt/apps/Gaussian/G16C/g16/l1.exe PID=    264660.
  
 Copyright (c) 1988-2019, Gaussian, Inc.  All Rights Reserved.
  
 This is part of the Gaussian(R) 16 program.  It is based on
 the Gaussian(R) 09 system (copyright 2009, Gaussian, Inc.),
 the Gaussian(R) 03 system (copyright 2003, Gaussian, Inc.),
 the Gaussian(R) 98 system (copyright 1998, Gaussian, Inc.),
 the Gaussian(R) 94 system (copyright 1995, Gaussian, Inc.),
 the Gaussian 92(TM) system (copyright 1992, Gaussian, Inc.),
 the Gaussian 90(TM) system (copyright 1990, Gaussian, Inc.),
 the Gaussian 88(TM) system (copyright 1988, Gaussian, Inc.),
 the Gaussian 86(TM) system (copyright 1986, Carnegie Mellon
 University), and the Gaussian 82(TM) system (copyright 1983,
 Carnegie Mellon University). Gaussian is a federally registered
 trademark of Gaussian, Inc.
  
 This software contains proprietary and confidential information,
 including trade secrets, belonging to Gaussian, Inc.
  
 This software is provided under written license and may be
 used, copied, transmitted, or stored only in accord with that
 written license.
  
 The following legend is applicable only to US Government
 contracts under FAR:
  
                    RESTRICTED RIGHTS LEGEND
  
 Use, reproduction and disclosure by the US Government is
 subject to restrictions as set forth in subparagraphs (a)
 and (c) of the Commercial Computer Software - Restricted
 Rights clause in FAR 52.227-19.
  
 Gaussian, Inc.
 340 Quinnipiac St., Bldg. 40, Wallingford CT 06492
  
  
 ---------------------------------------------------------------
 Warning -- This program may not be used in any manner that
 competes with the business of Gaussian, Inc. or will provide
 assistance to any competitor of Gaussian, Inc.  The licensee
 of this program is prohibited from giving any competitor of
 Gaussian, Inc. access to this program.  By using this program,
 the user acknowledges that Gaussian, Inc. is engaged in the
 business of creating and licensing software in the field of
 computational chemistry and represents and warrants to the
 licensee that it is not a competitor of Gaussian, Inc. and that
 it will not use this program in any manner prohibited above.
 ---------------------------------------------------------------
  

 Cite this work as:
 Gaussian 16, Revision C.01,
 M. J. Frisch, G. W. Trucks, H. B. Schlegel, G. E. Scuseria, 
 M. A. Robb, J. R. Cheeseman, G. Scalmani, V. Barone, 
 G. A. Petersson, H. Nakatsuji, X. Li, M. Caricato, A. V. Marenich, 
 J. Bloino, B. G. Janesko, R. Gomperts, B. Mennucci, H. P. Hratchian, 
 J. V. Ortiz, A. F. Izmaylov, J. L. Sonnenberg, D. Williams-Young, 
 F. Ding, F. Lipparini, F. Egidi, J. Goings, B. Peng, A. Petrone, 
 T. Henderson, D. Ranasinghe, V. G. Zakrzewski, J. Gao, N. Rega, 
 G. Zheng, W. Liang, M. Hada, M. Ehara, K. Toyota, R. Fukuda, 
 J. Hasegawa, M. Ishida, T. Nakajima, Y. Honda, O. Kitao, H. Nakai, 
 T. Vreven, K. Throssell, J. A. Montgomery, Jr., J. E. Peralta, 
 F. Ogliaro, M. J. Bearpark, J. J. Heyd, E. N. Brothers, K. N. Kudin, 
 V. N. Staroverov, T. A. Keith, R. Kobayashi, J. Normand, 
 K. Raghavachari, A. P. Rendell, J. C. Burant, S. S. Iyengar, 
 J. Tomasi, M. Cossi, J. M. Millam, M. Klene, C. Adamo, R. Cammi, 
 J. W. Ochterski, R. L. Martin, K. Morokuma, O. Farkas, 
 J. B. Foresman, and D. J. Fox, Gaussian, Inc., Wallingford CT, 2019.
 
 ******************************************
 Gaussian 16:  AS64L-G16RevC.01  3-Jul-2019
                20-Jun-2022 
 ******************************************
 %nproc=8
 Will use up to    8 processors via shared memory.
 %mem=96GB
 %chk=/home/svss/projects/Project-Philicity/GS/hydrocarbon/set-1/GS/mol_28_hc/mol
 _28_hc.chk
 -------------------------
 # opt freq M062X/def2tzvp
 -------------------------
 1/18=20,19=15,26=3,38=1/1,3;
 2/9=110,12=2,17=6,18=5,40=1/2;
 3/5=44,7=101,11=2,25=1,30=1,71=1,74=-55/1,2,3;
 4//1;
 5/5=2,38=5/2;
 6/7=2,8=2,9=2,10=2,28=1/1;
 7//1,2,3,16;
 1/18=20,19=15,26=3/3(2);
 2/9=110/2;
 99//99;
 2/9=110/2;
 3/5=44,7=101,11=2,25=1,30=1,71=1,74=-55/1,2,3;
 4/5=5,16=3,69=1/1;
 5/5=2,38=5/2;
 7//1,2,3,16;
 1/18=20,19=15,26=3/3(-5);
 2/9=110/2;
 6/7=2,8=2,9=2,10=2,19=2,28=1/1;
 99/9=1/99;
 ----------------------------------------------------------------------
 converted from /home/svss/projects/Project-Philicity/GS/hydrocarbon/se
 t-1/GS/mol_28_hc/mol_28_hc_cregen_best.xyz
 ----------------------------------------------------------------------
 Symbolic Z-matrix:
 Charge =  0 Multiplicity = 1
 C                     4.0214   -0.00031   0.09923 
 C                     2.52717  -0.00021   0.01767 
 C                     1.82177  -1.20062  -0.00556 
 C                     0.43941  -1.20475  -0.05881 
 C                    -0.23305   0.00033  -0.0878 
 S                    -2.00689   0.00055  -0.19832 
 O                    -2.54453   1.23808   0.28206 
 O                    -2.54415  -1.23951   0.27612 
 C                     0.43997   1.20518  -0.06158 
 C                     1.82229   1.2005   -0.00829 
 H                     4.33212   0.00404   1.14425 
 H                     4.43753   0.88343  -0.37776 
 H                     4.43708  -0.88818  -0.37038 
 H                     2.36155  -2.13558   0.02011 
 H                    -0.129    -2.12124  -0.06635 
 H                    -2.22581   0.00387  -1.59305 
 H                    -0.12788   2.12201  -0.07109 
 H                     2.36257   2.13524   0.0152 
 

 GradGradGradGradGradGradGradGradGradGradGradGradGradGradGradGradGradGrad
 Berny optimization.
 Initialization pass.
                           ----------------------------
                           !    Initial Parameters    !
                           ! (Angstroms and Degrees)  !
 --------------------------                            --------------------------
 ! Name  Definition              Value          Derivative Info.                !
 --------------------------------------------------------------------------------
 ! R1    R(1,2)                  1.4965         estimate D2E/DX2                !
 ! R2    R(1,11)                 1.0902         estimate D2E/DX2                !
 ! R3    R(1,12)                 1.0871         estimate D2E/DX2                !
 ! R4    R(1,13)                 1.087          estimate D2E/DX2                !
 ! R5    R(2,3)                  1.3925         estimate D2E/DX2                !
 ! R6    R(2,10)                 1.3926         estimate D2E/DX2                !
 ! R7    R(3,4)                  1.3834         estimate D2E/DX2                !
 ! R8    R(3,14)                 1.0799         estimate D2E/DX2                !
 ! R9    R(4,5)                  1.3803         estimate D2E/DX2                !
 ! R10   R(4,15)                 1.0785         estimate D2E/DX2                !
 ! R11   R(5,6)                  1.7773         estimate D2E/DX2                !
 ! R12   R(5,9)                  1.3803         estimate D2E/DX2                !
 ! R13   R(6,7)                  1.4322         estimate D2E/DX2                !
 ! R14   R(6,8)                  1.4323         estimate D2E/DX2                !
 ! R15   R(6,16)                 1.4118         estimate D2E/DX2                !
 ! R16   R(9,10)                 1.3834         estimate D2E/DX2                !
 ! R17   R(9,17)                 1.0785         estimate D2E/DX2                !
 ! R18   R(10,18)                1.0799         estimate D2E/DX2                !
 ! A1    A(2,1,11)             109.6831         estimate D2E/DX2                !
 ! A2    A(2,1,12)             110.9939         estimate D2E/DX2                !
 ! A3    A(2,1,13)             110.9983         estimate D2E/DX2                !
 ! A4    A(11,1,12)            107.9536         estimate D2E/DX2                !
 ! A5    A(11,1,13)            107.9608         estimate D2E/DX2                !
 ! A6    A(12,1,13)            109.1518         estimate D2E/DX2                !
 ! A7    A(1,2,3)              120.4418         estimate D2E/DX2                !
 ! A8    A(1,2,10)             120.4307         estimate D2E/DX2                !
 ! A9    A(3,2,10)             119.1145         estimate D2E/DX2                !
 ! A10   A(2,3,4)              120.624          estimate D2E/DX2                !
 ! A11   A(2,3,14)             119.5212         estimate D2E/DX2                !
 ! A12   A(4,3,14)             119.8547         estimate D2E/DX2                !
 ! A13   A(3,4,5)              119.0137         estimate D2E/DX2                !
 ! A14   A(3,4,15)             121.9693         estimate D2E/DX2                !
 ! A15   A(5,4,15)             119.0128         estimate D2E/DX2                !
 ! A16   A(4,5,6)              119.1863         estimate D2E/DX2                !
 ! A17   A(4,5,9)              121.6092         estimate D2E/DX2                !
 ! A18   A(6,5,9)              119.1901         estimate D2E/DX2                !
 ! A19   A(5,6,7)              110.7265         estimate D2E/DX2                !
 ! A20   A(5,6,8)              110.712          estimate D2E/DX2                !
 ! A21   A(5,6,16)             102.4857         estimate D2E/DX2                !
 ! A22   A(7,6,8)              119.7471         estimate D2E/DX2                !
 ! A23   A(7,6,16)             105.7302         estimate D2E/DX2                !
 ! A24   A(8,6,16)             105.7301         estimate D2E/DX2                !
 ! A25   A(5,9,10)             119.0121         estimate D2E/DX2                !
 ! A26   A(5,9,17)             119.0221         estimate D2E/DX2                !
 ! A27   A(10,9,17)            121.9615         estimate D2E/DX2                !
 ! A28   A(2,10,9)             120.6259         estimate D2E/DX2                !
 ! A29   A(2,10,18)            119.5169         estimate D2E/DX2                !
 ! A30   A(9,10,18)            119.8571         estimate D2E/DX2                !
 ! D1    D(11,1,2,3)           -89.5163         estimate D2E/DX2                !
 ! D2    D(11,1,2,10)           89.1595         estimate D2E/DX2                !
 ! D3    D(12,1,2,3)           151.2794         estimate D2E/DX2                !
 ! D4    D(12,1,2,10)          -30.0447         estimate D2E/DX2                !
 ! D5    D(13,1,2,3)            29.6996         estimate D2E/DX2                !
 ! D6    D(13,1,2,10)         -151.6246         estimate D2E/DX2                !
 ! D7    D(1,2,3,4)            178.9355         estimate D2E/DX2                !
 ! D8    D(1,2,3,14)            -0.9551         estimate D2E/DX2                !
 ! D9    D(10,2,3,4)             0.2424         estimate D2E/DX2                !
 ! D10   D(10,2,3,14)         -179.6482         estimate D2E/DX2                !
 ! D11   D(1,2,10,9)          -178.9372         estimate D2E/DX2                !
 ! D12   D(1,2,10,18)            0.9584         estimate D2E/DX2                !
 ! D13   D(3,2,10,9)            -0.2439         estimate D2E/DX2                !
 ! D14   D(3,2,10,18)          179.6518         estimate D2E/DX2                !
 ! D15   D(2,3,4,5)             -0.042          estimate D2E/DX2                !
 ! D16   D(2,3,4,15)          -179.29           estimate D2E/DX2                !
 ! D17   D(14,3,4,5)           179.8482         estimate D2E/DX2                !
 ! D18   D(14,3,4,15)            0.6003         estimate D2E/DX2                !
 ! D19   D(3,4,5,6)            178.4436         estimate D2E/DX2                !
 ! D20   D(3,4,5,9)             -0.1641         estimate D2E/DX2                !
 ! D21   D(15,4,5,6)            -2.2859         estimate D2E/DX2                !
 ! D22   D(15,4,5,9)           179.1064         estimate D2E/DX2                !
 ! D23   D(4,5,6,7)            158.1004         estimate D2E/DX2                !
 ! D24   D(4,5,6,8)             22.8461         estimate D2E/DX2                !
 ! D25   D(4,5,6,16)           -89.5239         estimate D2E/DX2                !
 ! D26   D(9,5,6,7)            -23.2578         estimate D2E/DX2                !
 ! D27   D(9,5,6,8)           -158.5122         estimate D2E/DX2                !
 ! D28   D(9,5,6,16)            89.1179         estimate D2E/DX2                !
 ! D29   D(4,5,9,10)             0.1626         estimate D2E/DX2                !
 ! D30   D(4,5,9,17)          -179.0983         estimate D2E/DX2                !
 ! D31   D(6,5,9,10)          -178.445          estimate D2E/DX2                !
 ! D32   D(6,5,9,17)             2.294          estimate D2E/DX2                !
 ! D33   D(5,9,10,2)             0.045          estimate D2E/DX2                !
 ! D34   D(5,9,10,18)         -179.8503         estimate D2E/DX2                !
 ! D35   D(17,9,10,2)          179.2832         estimate D2E/DX2                !
 ! D36   D(17,9,10,18)          -0.612          estimate D2E/DX2                !
 --------------------------------------------------------------------------------
 Trust Radius=3.00D-01 FncErr=1.00D-07 GrdErr=1.00D-06 EigMax=2.50D+02 EigMin=1.00D-04
 Number of steps in this run=     94 maximum allowed number of steps=    108.
 GradGradGradGradGradGradGradGradGradGradGradGradGradGradGradGradGradGrad

                          Input orientation:                          
 ---------------------------------------------------------------------
 Center     Atomic      Atomic             Coordinates (Angstroms)
 Number     Number       Type             X           Y           Z
 ---------------------------------------------------------------------
      1          6           0        4.021400   -0.000310    0.099230
      2          6           0        2.527170   -0.000210    0.017670
      3          6           0        1.821770   -1.200620   -0.005560
      4          6           0        0.439410   -1.204750   -0.058810
      5          6           0       -0.233050    0.000330   -0.087800
      6         16           0       -2.006890    0.000550   -0.198320
      7          8           0       -2.544530    1.238080    0.282060
      8          8           0       -2.544150   -1.239510    0.276120
      9          6           0        0.439970    1.205180   -0.061580
     10          6           0        1.822290    1.200500   -0.008290
     11          1           0        4.332120    0.004040    1.144250
     12          1           0        4.437530    0.883430   -0.377760
     13          1           0        4.437080   -0.888180   -0.370380
     14          1           0        2.361550   -2.135580    0.020110
     15          1           0       -0.129000   -2.121240   -0.066350
     16          1           0       -2.225810    0.003870   -1.593050
     17          1           0       -0.127880    2.122010   -0.071090
     18          1           0        2.362570    2.135240    0.015200
 ---------------------------------------------------------------------
                    Distance matrix (angstroms):
                    1          2          3          4          5
     1  C    0.000000
     2  C    1.496454   0.000000
     3  C    2.508007   1.392520   0.000000
     4  C    3.782368   2.411536   1.383391   0.000000
     5  C    4.258559   2.762234   2.381455   1.380312   0.000000
     6  S    6.035629   4.539202   4.017288   2.730677   1.777280
     7  O    6.684196   5.227371   5.009447   3.871370   2.647973
     8  O    6.683813   5.226944   4.375170   3.002502   2.647796
     9  C    3.782289   2.411566   2.774956   2.409932   1.380329
    10  C    2.507906   1.392564   2.401122   2.774912   2.381418
    11  H    1.090244   2.127685   3.012495   4.249908   4.728503
    12  H    1.087051   2.141649   3.365115   4.521857   4.762170
    13  H    1.087031   2.141689   2.659052   4.022270   4.762291
    14  H    2.705687   2.141785   1.079894   2.137123   3.362396
    15  H    4.663859   3.400157   2.157948   1.078471   2.124228
    16  H    6.472361   5.018491   4.511521   3.304248   2.497375
    17  H    4.663665   3.400145   3.852960   3.374804   2.124351
    18  H    2.705430   2.141786   3.379476   3.854809   3.362394
                    6          7          8          9         10
     6  S    0.000000
     7  O    1.432237   0.000000
     8  O    1.432302   2.477597   0.000000
     9  C    2.730743   3.004399   3.872405   0.000000
    10  C    4.017289   4.376623   5.010024   1.383355   0.000000
    11  H    6.479626   7.039499   7.041531   4.248011   3.009836
    12  H    6.507090   7.022129   7.326547   4.022932   2.660173
    13  H    6.507242   7.327314   7.019898   4.522654   3.366128
    14  H    4.867651   5.959851   4.993433   3.854844   3.379503
    15  H    2.836526   4.152253   2.593778   3.374733   3.852903
    16  H    1.411810   2.267354   2.267406   3.300747   4.508936
    17  H    2.836804   2.597353   4.154363   1.078481   2.157843
    18  H    4.867717   4.995572   5.960949   2.137124   1.079904
                   11         12         13         14         15
    11  H    0.000000
    12  H    1.760952   0.000000
    13  H    1.761016   1.771625   0.000000
    14  H    3.118463   3.685433   2.452818   0.000000
    15  H    5.087628   5.475236   4.739405   2.492092   0.000000
    16  H    7.106283   6.830129   6.832626   5.312570   3.353135
    17  H    5.084727   4.740369   5.476283   4.932814   4.243253
    18  H    3.113823   2.454976   3.686914   4.270823   4.932767
                   16         17         18
    16  H    0.000000
    17  H    3.347266   0.000000
    18  H    5.308713   2.491980   0.000000
 Stoichiometry    C7H8O2S
 Framework group  C1[X(C7H8O2S)]
 Deg. of freedom    48
 Full point group                 C1      NOp   1
 Largest Abelian subgroup         C1      NOp   1
 Largest concise Abelian subgroup C1      NOp   1
                         Standard orientation:                         
 ---------------------------------------------------------------------
 Center     Atomic      Atomic             Coordinates (Angstroms)
 Number     Number       Type             X           Y           Z
 ---------------------------------------------------------------------
      1          6           0        3.928567    0.000297   -0.081664
      2          6           0        2.433842    0.000202   -0.009745
      3          6           0        1.728321    1.200617    0.009151
      4          6           0        0.345647    1.204756    0.053483
      5          6           0       -0.327001   -0.000320    0.077917
      6         16           0       -2.101517   -0.000536    0.176991
      7          8           0       -2.636063   -1.237972   -0.307071
      8          8           0       -2.635690    1.239617   -0.300681
      9          6           0        0.346159   -1.205174    0.055821
     10          6           0        1.728794   -1.200503    0.011450
     11          1           0        4.246022   -0.003869   -1.124658
     12          1           0        4.341600   -0.883535    0.397841
     13          1           0        4.341219    0.888076    0.390778
     14          1           0        2.268267    2.135575   -0.012867
     15          1           0       -0.222789    2.121253    0.057522
     16          1           0       -2.329430   -0.004105    1.570279
     17          1           0       -0.221752   -2.121998    0.061502
     18          1           0        2.269203   -2.135246   -0.008723
 ---------------------------------------------------------------------
 Rotational constants (GHZ):           3.4473700           0.6524190           0.5585664
 Standard basis: def2TZVP (5D, 7F)
 There are   414 symmetry adapted cartesian basis functions of A   symmetry.
 There are   364 symmetry adapted basis functions of A   symmetry.
   364 basis functions,   592 primitive gaussians,   414 cartesian basis functions
    41 alpha electrons       41 beta electrons
       nuclear repulsion energy       609.7148841662 Hartrees.
 NAtoms=   18 NActive=   18 NUniq=   18 SFac= 1.00D+00 NAtFMM=   60 NAOKFM=F Big=F
 Integral buffers will be    131072 words long.
 Raffenetti 2 integral format.
 Two-electron integral symmetry is turned on.
 One-electron integrals computed using PRISM.
   1 Symmetry operations used in ECPInt.
 ECPInt:  NShTT=   10440 NPrTT=   32898 LenC2=    9853 LenP2D=   23820.
 LDataN:  DoStor=T MaxTD1= 6 Len=  172
 NBasis=   364 RedAO= T EigKep=  7.18D-06  NBF=   364
 NBsUse=   364 1.00D-06 EigRej= -1.00D+00 NBFU=   364
 ExpMin= 9.52D-02 ExpMax= 6.07D+04 ExpMxC= 2.07D+03 IAcc=3 IRadAn=         5 AccDes= 0.00D+00
 Harris functional with IExCor= 1009 and IRadAn=       5 diagonalized for initial guess.
 HarFok:  IExCor= 1009 AccDes= 0.00D+00 IRadAn=         5 IDoV= 1 UseB2=F ITyADJ=14
 ICtDFT=  3500011 ScaDFX=  1.000000  1.000000  1.000000  1.000000
 FoFCou: FMM=F IPFlag=           0 FMFlag=      100000 FMFlg1=           0
         NFxFlg=           0 DoJE=T BraDBF=F KetDBF=T FulRan=T
         wScrn=  0.000000 ICntrl=       500 IOpCl=  0 I1Cent=   200000004 NGrid=           0
         NMat0=    1 NMatS0=      1 NMatT0=    0 NMatD0=    1 NMtDS0=    0 NMtDT0=    0
 Petite list used in FoFCou.
 Requested convergence on RMS density matrix=1.00D-08 within 128 cycles.
 Requested convergence on MAX density matrix=1.00D-06.
 Requested convergence on             energy=1.00D-06.
 No special actions if energy rises.
 Integral accuracy reduced to 1.0D-05 until final iterations.
 Initial convergence to 1.0D-05 achieved.  Increase integral accuracy.
 SCF Done:  E(RM062X) =  -820.146102396     A.U. after   14 cycles
            NFock= 14  Conv=0.65D-08     -V/T= 2.0030

 **********************************************************************

            Population analysis using the SCF Density.

 **********************************************************************

 Orbital symmetries:
       Occupied  (A) (A) (A) (A) (A) (A) (A) (A) (A) (A) (A) (A)
                 (A) (A) (A) (A) (A) (A) (A) (A) (A) (A) (A) (A)
                 (A) (A) (A) (A) (A) (A) (A) (A) (A) (A) (A) (A)
                 (A) (A) (A) (A) (A)
       Virtual   (A) (A) (A) (A) (A) (A) (A) (A) (A) (A) (A) (A)
                 (A) (A) (A) (A) (A) (A) (A) (A) (A) (A) (A) (A)
                 (A) (A) (A) (A) (A) (A) (A) (A) (A) (A) (A) (A)
                 (A) (A) (A) (A) (A) (A) (A) (A) (A) (A) (A) (A)
                 (A) (A) (A) (A) (A) (A) (A) (A) (A) (A) (A) (A)
                 (A) (A) (A) (A) (A) (A) (A) (A) (A) (A) (A) (A)
                 (A) (A) (A) (A) (A) (A) (A) (A) (A) (A) (A) (A)
                 (A) (A) (A) (A) (A) (A) (A) (A) (A) (A) (A) (A)
                 (A) (A) (A) (A) (A) (A) (A) (A) (A) (A) (A) (A)
                 (A) (A) (A) (A) (A) (A) (A) (A) (A) (A) (A) (A)
                 (A) (A) (A) (A) (A) (A) (A) (A) (A) (A) (A) (A)
                 (A) (A) (A) (A) (A) (A) (A) (A) (A) (A) (A) (A)
                 (A) (A) (A) (A) (A) (A) (A) (A) (A) (A) (A) (A)
                 (A) (A) (A) (A) (A) (A) (A) (A) (A) (A) (A) (A)
                 (A) (A) (A) (A) (A) (A) (A) (A) (A) (A) (A) (A)
                 (A) (A) (A) (A) (A) (A) (A) (A) (A) (A) (A) (A)
                 (A) (A) (A) (A) (A) (A) (A) (A) (A) (A) (A) (A)
                 (A) (A) (A) (A) (A) (A) (A) (A) (A) (A) (A) (A)
                 (A) (A) (A) (A) (A) (A) (A) (A) (A) (A) (A) (A)
                 (A) (A) (A) (A) (A) (A) (A) (A) (A) (A) (A) (A)
                 (A) (A) (A) (A) (A) (A) (A) (A) (A) (A) (A) (A)
                 (A) (A) (A) (A) (A) (A) (A) (A) (A) (A) (A) (A)
                 (A) (A) (A) (A) (A) (A) (A) (A) (A) (A) (A) (A)
                 (A) (A) (A) (A) (A) (A) (A) (A) (A) (A) (A) (A)
                 (A) (A) (A) (A) (A) (A) (A) (A) (A) (A) (A) (A)
                 (A) (A) (A) (A) (A) (A) (A) (A) (A) (A) (A) (A)
                 (A) (A) (A) (A) (A) (A) (A) (A) (A) (A) (A)
 The electronic state is 1-A.
 Alpha  occ. eigenvalues --  -90.09287 -19.62246 -19.62244 -10.58476 -10.57932
 Alpha  occ. eigenvalues --  -10.57335 -10.57329 -10.56484 -10.56480 -10.55164
 Alpha  occ. eigenvalues --   -8.42377  -6.34495  -6.34467  -6.34435  -1.23972
 Alpha  occ. eigenvalues --   -1.13324  -1.00127  -0.91297  -0.87555  -0.82517
 Alpha  occ. eigenvalues --   -0.75455  -0.72546  -0.68376  -0.63307  -0.58945
 Alpha  occ. eigenvalues --   -0.57097  -0.55341  -0.53379  -0.53065  -0.51844
 Alpha  occ. eigenvalues --   -0.51555  -0.47491  -0.45982  -0.44726  -0.42785
 Alpha  occ. eigenvalues --   -0.41750  -0.41544  -0.39273  -0.36880  -0.33833
 Alpha  occ. eigenvalues --   -0.33292
 Alpha virt. eigenvalues --   -0.02445  -0.00693   0.05561   0.06346   0.08749
 Alpha virt. eigenvalues --    0.09456   0.10604   0.10766   0.13062   0.13782
 Alpha virt. eigenvalues --    0.14021   0.14974   0.15764   0.16052   0.17485
 Alpha virt. eigenvalues --    0.19509   0.19891   0.21031   0.23251   0.23835
 Alpha virt. eigenvalues --    0.25031   0.25866   0.26124   0.28034   0.29527
 Alpha virt. eigenvalues --    0.30499   0.30903   0.31780   0.33020   0.33411
 Alpha virt. eigenvalues --    0.35219   0.36337   0.37174   0.37749   0.37919
 Alpha virt. eigenvalues --    0.37931   0.38890   0.40582   0.41506   0.43606
 Alpha virt. eigenvalues --    0.44005   0.44274   0.45168   0.45394   0.47797
 Alpha virt. eigenvalues --    0.48045   0.49743   0.49960   0.51182   0.52506
 Alpha virt. eigenvalues --    0.52914   0.54442   0.54589   0.55574   0.56044
 Alpha virt. eigenvalues --    0.58991   0.61524   0.62303   0.63829   0.64358
 Alpha virt. eigenvalues --    0.67151   0.67763   0.67817   0.68899   0.71129
 Alpha virt. eigenvalues --    0.71505   0.74847   0.74926   0.76217   0.76362
 Alpha virt. eigenvalues --    0.77936   0.78875   0.80075   0.81200   0.84688
 Alpha virt. eigenvalues --    0.86723   0.87789   0.88985   0.89092   0.90818
 Alpha virt. eigenvalues --    0.93334   0.95194   0.95880   0.97905   0.98826
 Alpha virt. eigenvalues --    1.01347   1.03290   1.03643   1.07520   1.08502
 Alpha virt. eigenvalues --    1.12546   1.14666   1.16017   1.16416   1.20299
 Alpha virt. eigenvalues --    1.22231   1.23096   1.24735   1.26925   1.29010
 Alpha virt. eigenvalues --    1.29092   1.31012   1.31255   1.33289   1.37608
 Alpha virt. eigenvalues --    1.40459   1.41187   1.42514   1.43402   1.47050
 Alpha virt. eigenvalues --    1.47124   1.50488   1.50892   1.52203   1.54219
 Alpha virt. eigenvalues --    1.55232   1.56722   1.58679   1.58798   1.59680
 Alpha virt. eigenvalues --    1.59999   1.60213   1.61627   1.62724   1.64634
 Alpha virt. eigenvalues --    1.65336   1.65941   1.69189   1.69474   1.71912
 Alpha virt. eigenvalues --    1.73148   1.76471   1.77271   1.78962   1.81629
 Alpha virt. eigenvalues --    1.83249   1.84700   1.86739   1.87714   1.89624
 Alpha virt. eigenvalues --    1.90126   1.93641   1.97561   2.00329   2.01181
 Alpha virt. eigenvalues --    2.01990   2.03469   2.06347   2.08310   2.09693
 Alpha virt. eigenvalues --    2.12075   2.13810   2.15171   2.17200   2.17689
 Alpha virt. eigenvalues --    2.20150   2.20363   2.21278   2.24166   2.25663
 Alpha virt. eigenvalues --    2.27944   2.29928   2.30661   2.32567   2.35757
 Alpha virt. eigenvalues --    2.37149   2.37304   2.38690   2.40465   2.44236
 Alpha virt. eigenvalues --    2.45895   2.46324   2.47927   2.50774   2.52642
 Alpha virt. eigenvalues --    2.53325   2.54404   2.58760   2.60795   2.62703
 Alpha virt. eigenvalues --    2.63394   2.64493   2.67541   2.68467   2.70033
 Alpha virt. eigenvalues --    2.70399   2.71955   2.74031   2.75709   2.76511
 Alpha virt. eigenvalues --    2.78804   2.81346   2.81637   2.83474   2.85968
 Alpha virt. eigenvalues --    2.86807   2.88772   2.91095   2.92303   2.93658
 Alpha virt. eigenvalues --    2.95767   2.96662   2.98646   3.00353   3.00402
 Alpha virt. eigenvalues --    3.01384   3.03691   3.04272   3.05266   3.08931
 Alpha virt. eigenvalues --    3.09050   3.10757   3.11225   3.12939   3.13088
 Alpha virt. eigenvalues --    3.13612   3.13976   3.14873   3.18505   3.18530
 Alpha virt. eigenvalues --    3.20802   3.22276   3.26220   3.26579   3.30175
 Alpha virt. eigenvalues --    3.30811   3.31055   3.32342   3.33979   3.37504
 Alpha virt. eigenvalues --    3.39577   3.40692   3.40827   3.42084   3.44472
 Alpha virt. eigenvalues --    3.44863   3.46402   3.50042   3.50253   3.53064
 Alpha virt. eigenvalues --    3.56038   3.61967   3.62451   3.65224   3.70276
 Alpha virt. eigenvalues --    3.74029   3.77436   3.78395   3.81283   3.86032
 Alpha virt. eigenvalues --    3.87700   3.88909   3.89809   4.01064   4.01265
 Alpha virt. eigenvalues --    4.07684   4.09201   4.09398   4.12232   4.14835
 Alpha virt. eigenvalues --    4.17244   4.19767   4.19922   4.22615   4.24468
 Alpha virt. eigenvalues --    4.26522   4.33614   4.36125   4.38601   4.43197
 Alpha virt. eigenvalues --    4.50033   4.52995   4.60996   4.62465   4.64166
 Alpha virt. eigenvalues --    4.65981   4.79887   4.84294   4.88354   4.92550
 Alpha virt. eigenvalues --    5.10365   5.11724   5.16256   5.16806   5.17507
 Alpha virt. eigenvalues --    5.17804   5.20848   5.24840   5.27284   5.29420
 Alpha virt. eigenvalues --    5.31147   5.31291   5.34316   5.40091   5.48602
 Alpha virt. eigenvalues --    5.54264   5.55277   5.68030   5.68333   5.77178
 Alpha virt. eigenvalues --    6.31065   6.32360   6.36437   6.41461   6.69389
 Alpha virt. eigenvalues --    6.71598   6.77112   6.79026   6.89717   6.95861
 Alpha virt. eigenvalues --    9.10018   9.55025   9.77622  22.04587  22.14738
 Alpha virt. eigenvalues --   22.52467  22.78734  22.82267  22.83533  22.96773
 Alpha virt. eigenvalues --   23.35378  43.68020  43.75969
          Condensed to atoms (all electrons):
               1          2          3          4          5          6
     1  C    5.066849   0.274384  -0.072282   0.012422  -0.004732   0.000001
     2  C    0.274384   4.952570   0.478066  -0.017448  -0.078679  -0.001026
     3  C   -0.072282   0.478066   5.095654   0.399681  -0.001999   0.007548
     4  C    0.012422  -0.017448   0.399681   5.160314   0.324636  -0.028902
     5  C   -0.004732  -0.078679  -0.001999   0.324636   5.504499   0.274560
     6  S    0.000001  -0.001026   0.007548  -0.028902   0.274560  13.591574
     7  O    0.000001   0.000121  -0.000662   0.011276  -0.082486   0.553295
     8  O    0.000001   0.000125   0.002646   0.015720  -0.082625   0.553347
     9  C    0.012345  -0.017485  -0.060486  -0.049192   0.324545  -0.028761
    10  C   -0.072331   0.477862  -0.054326  -0.060641  -0.002141   0.007546
    11  H    0.390643  -0.020833  -0.004115  -0.001581   0.000507  -0.000004
    12  H    0.433145  -0.053875   0.013251  -0.001057   0.000026   0.000002
    13  H    0.433202  -0.053937  -0.017263   0.002290   0.000021   0.000002
    14  H   -0.004598  -0.038527   0.406045  -0.022641   0.004837  -0.000123
    15  H    0.000013   0.003846  -0.024795   0.402554  -0.032450  -0.006160
    16  H    0.000001   0.000683  -0.002567   0.005308  -0.040949   0.331478
    17  H    0.000014   0.003848  -0.001459   0.007198  -0.032616  -0.006049
    18  H   -0.004525  -0.038572   0.006568  -0.000832   0.004851  -0.000124
               7          8          9         10         11         12
     1  C    0.000001   0.000001   0.012345  -0.072331   0.390643   0.433145
     2  C    0.000121   0.000125  -0.017485   0.477862  -0.020833  -0.053875
     3  C   -0.000662   0.002646  -0.060486  -0.054326  -0.004115   0.013251
     4  C    0.011276   0.015720  -0.049192  -0.060641  -0.001581  -0.001057
     5  C   -0.082486  -0.082625   0.324545  -0.002141   0.000507   0.000026
     6  S    0.553295   0.553347  -0.028761   0.007546  -0.000004   0.000002
     7  O    8.049768  -0.047774   0.015715   0.002663  -0.000000   0.000000
     8  O   -0.047774   8.049918   0.011341  -0.000668  -0.000000   0.000000
     9  C    0.015715   0.011341   5.160158   0.400151  -0.001575   0.002256
    10  C    0.002663  -0.000668   0.400151   5.095560  -0.004153  -0.017224
    11  H   -0.000000  -0.000000  -0.001575  -0.004153   0.522863  -0.025633
    12  H    0.000000   0.000000   0.002256  -0.017224  -0.025633   0.525313
    13  H    0.000000   0.000000  -0.001050   0.013280  -0.025514  -0.026178
    14  H    0.000003  -0.000015  -0.000835   0.006579   0.000399   0.000090
    15  H    0.000470   0.013825   0.007163  -0.001460   0.000000   0.000002
    16  H   -0.051069  -0.051007   0.004970  -0.002578   0.000001  -0.000001
    17  H    0.013749   0.000470   0.402483  -0.024663   0.000000  -0.000009
    18  H   -0.000015   0.000003  -0.022691   0.406087   0.000399  -0.000193
              13         14         15         16         17         18
     1  C    0.433202  -0.004598   0.000013   0.000001   0.000014  -0.004525
     2  C   -0.053937  -0.038527   0.003846   0.000683   0.003848  -0.038572
     3  C   -0.017263   0.406045  -0.024795  -0.002567  -0.001459   0.006568
     4  C    0.002290  -0.022641   0.402554   0.005308   0.007198  -0.000832
     5  C    0.000021   0.004837  -0.032450  -0.040949  -0.032616   0.004851
     6  S    0.000002  -0.000123  -0.006160   0.331478  -0.006049  -0.000124
     7  O    0.000000   0.000003   0.000470  -0.051069   0.013749  -0.000015
     8  O    0.000000  -0.000015   0.013825  -0.051007   0.000470   0.000003
     9  C   -0.001050  -0.000835   0.007163   0.004970   0.402483  -0.022691
    10  C    0.013280   0.006579  -0.001460  -0.002578  -0.024663   0.406087
    11  H   -0.025514   0.000399   0.000000   0.000001   0.000000   0.000399
    12  H   -0.026178   0.000090   0.000002  -0.000001  -0.000009  -0.000193
    13  H    0.525308  -0.000185  -0.000009  -0.000001   0.000002   0.000089
    14  H   -0.000185   0.495489  -0.002487   0.000017   0.000053  -0.000181
    15  H   -0.000009  -0.002487   0.449474   0.002095  -0.000123   0.000053
    16  H   -0.000001   0.000017   0.002095   0.706821   0.002098   0.000017
    17  H    0.000002   0.000053  -0.000123   0.002098   0.449729  -0.002496
    18  H    0.000089  -0.000181   0.000053   0.000017  -0.002496   0.495464
 Mulliken charges:
               1
     1  C   -0.464551
     2  C    0.128878
     3  C   -0.169504
     4  C   -0.159104
     5  C   -0.079805
     6  S    0.751796
     7  O   -0.465054
     8  O   -0.465306
     9  C   -0.159053
    10  C   -0.169542
    11  H    0.168596
    12  H    0.150083
    13  H    0.149942
    14  H    0.156081
    15  H    0.187989
    16  H    0.094685
    17  H    0.187772
    18  H    0.156097
 Sum of Mulliken charges =  -0.00000
 Mulliken charges with hydrogens summed into heavy atoms:
               1
     1  C    0.004070
     2  C    0.128878
     3  C   -0.013423
     4  C    0.028885
     5  C   -0.079805
     6  S    0.846481
     7  O   -0.465054
     8  O   -0.465306
     9  C    0.028719
    10  C   -0.013445
 Electronic spatial extent (au):  <R**2>=           1950.6122
 Charge=             -0.0000 electrons
 Dipole moment (field-independent basis, Debye):
    X=              5.4419    Y=             -0.0058    Z=              2.0221  Tot=              5.8055
 Quadrupole moment (field-independent basis, Debye-Ang):
   XX=            -68.9490   YY=            -64.9885   ZZ=            -66.2268
   XY=              0.0131   XZ=             -6.3552   YZ=             -0.0289
 Traceless Quadrupole moment (field-independent basis, Debye-Ang):
   XX=             -2.2276   YY=              1.7329   ZZ=              0.4946
   XY=              0.0131   XZ=             -6.3552   YZ=             -0.0289
 Octapole moment (field-independent basis, Debye-Ang**2):
  XXX=             38.9038  YYY=             -0.0049  ZZZ=              0.0821  XYY=             14.2057
  XXY=             -0.0422  XXZ=             13.1289  XZZ=            -14.7448  YZZ=             -0.0028
  YYZ=              2.1204  XYZ=              0.0449
 Hexadecapole moment (field-independent basis, Debye-Ang**3):
 XXXX=          -2021.9895 YYYY=           -405.7503 ZZZZ=            -96.4559 XXXY=              0.0674
 XXXZ=            -40.2752 YYYX=              0.0629 YYYZ=             -0.0577 ZZZX=             -8.0729
 ZZZY=              0.0193 XXYY=           -431.8401 XXZZ=           -345.2096 YYZZ=            -95.0850
 XXYZ=             -0.1571 YYXZ=             -1.9083 ZZXY=             -0.0451
 N-N= 6.097148841662D+02 E-N=-3.149497293278D+03  KE= 8.176984183753D+02
   1 Symmetry operations used in ECPInt.
 ECPInt:  NShTT=   10440 NPrTT=   32898 LenC2=    9853 LenP2D=   23820.
 LDataN:  DoStor=T MaxTD1= 7 Len=  274
 Calling FoFJK, ICntrl=      2127 FMM=F ISym2X=0 I1Cent= 0 IOpClX= 0 NMat=1 NMatS=1 NMatT=0.
 ***** Axes restored to original set *****
 -------------------------------------------------------------------
 Center     Atomic                   Forces (Hartrees/Bohr)
 Number     Number              X              Y              Z
 -------------------------------------------------------------------
      1        6           0.000223837    0.000004360    0.000927732
      2        6          -0.000437741   -0.000010442   -0.000576948
      3        6          -0.001401649    0.001558566   -0.000188758
      4        6           0.000238553   -0.004240738    0.000331540
      5        6          -0.012193655   -0.000023606   -0.000036650
      6       16          -0.012901552   -0.000020104   -0.025479532
      7        8           0.007294543    0.003624848    0.001558904
      8        8           0.007313589   -0.003557772    0.001530247
      9        6           0.000264472    0.004259158    0.000346813
     10        6          -0.001407367   -0.001542156   -0.000205104
     11        1           0.001506909    0.000003367    0.000988821
     12        1           0.001344890    0.000674853   -0.000531521
     13        1           0.001345337   -0.000680942   -0.000526426
     14        1           0.000924236   -0.001939555   -0.000033748
     15        1          -0.000275062   -0.003327066    0.000178878
     16        1           0.007514975   -0.000047609    0.021575022
     17        1          -0.000273744    0.003326005    0.000176575
     18        1           0.000919431    0.001938832   -0.000035845
 -------------------------------------------------------------------
 Cartesian Forces:  Max     0.025479532 RMS     0.005627697

 GradGradGradGradGradGradGradGradGradGradGradGradGradGradGradGradGradGrad
 Berny optimization.
 FormGI is forming the generalized inverse of G from B-inverse, IUseBI=4.
 Internal  Forces:  Max     0.022478482 RMS     0.003965794
 Search for a local minimum.
 Step number   1 out of a maximum of   94
 All quantities printed in internal units (Hartrees-Bohrs-Radians)
 Mixed Optimization -- RFO/linear search
 Second derivative matrix not updated -- first step.
 ITU=  0
     Eigenvalues ---    0.00671   0.00813   0.01614   0.01721   0.02205
     Eigenvalues ---    0.02244   0.02255   0.02292   0.02326   0.02329
     Eigenvalues ---    0.02343   0.07236   0.07460   0.08250   0.08685
     Eigenvalues ---    0.15999   0.15999   0.16000   0.16000   0.16000
     Eigenvalues ---    0.16000   0.16000   0.16000   0.21419   0.22000
     Eigenvalues ---    0.22983   0.23996   0.24291   0.24646   0.24993
     Eigenvalues ---    0.24993   0.27991   0.32752   0.34784   0.35156
     Eigenvalues ---    0.35158   0.36006   0.36007   0.36178   0.36180
     Eigenvalues ---    0.43443   0.43513   0.47260   0.48161   0.48491
     Eigenvalues ---    0.48951   1.04296   1.04329
 RFO step:  Lambda=-5.60037768D-03 EMin= 6.70847755D-03
 Linear search not attempted -- first point.
 Iteration  1 RMS(Cart)=  0.02723638 RMS(Int)=  0.00078000
 Iteration  2 RMS(Cart)=  0.00086763 RMS(Int)=  0.00037506
 Iteration  3 RMS(Cart)=  0.00000164 RMS(Int)=  0.00037506
 Iteration  4 RMS(Cart)=  0.00000000 RMS(Int)=  0.00037506
 Variable       Old X    -DE/DX   Delta X   Delta X   Delta X     New X
                                 (Linear)    (Quad)   (Total)
    R1        2.82789   0.00446   0.00000   0.01339   0.01339   2.84128
    R2        2.06026   0.00138   0.00000   0.00390   0.00390   2.06416
    R3        2.05423   0.00130   0.00000   0.00363   0.00363   2.05786
    R4        2.05419   0.00130   0.00000   0.00363   0.00363   2.05782
    R5        2.63148   0.00244   0.00000   0.00464   0.00464   2.63612
    R6        2.63156   0.00244   0.00000   0.00465   0.00465   2.63621
    R7        2.61423   0.00152   0.00000   0.00309   0.00309   2.61732
    R8        2.04070   0.00214   0.00000   0.00585   0.00585   2.04656
    R9        2.60841   0.00623   0.00000   0.01304   0.01304   2.62145
   R10        2.03802   0.00297   0.00000   0.00809   0.00809   2.04610
   R11        3.35857  -0.00915   0.00000  -0.03206  -0.03206   3.32651
   R12        2.60844   0.00625   0.00000   0.01309   0.01309   2.62153
   R13        2.70654   0.00092   0.00000   0.00087   0.00087   2.70741
   R14        2.70666   0.00084   0.00000   0.00080   0.00080   2.70746
   R15        2.66794  -0.02248   0.00000  -0.10227  -0.10227   2.56566
   R16        2.61416   0.00150   0.00000   0.00306   0.00306   2.61722
   R17        2.03803   0.00297   0.00000   0.00808   0.00808   2.04612
   R18        2.04072   0.00214   0.00000   0.00585   0.00585   2.04657
    A1        1.91433   0.00138   0.00000   0.00901   0.00898   1.92332
    A2        1.93721   0.00079   0.00000   0.00440   0.00438   1.94159
    A3        1.93729   0.00079   0.00000   0.00440   0.00438   1.94167
    A4        1.88415  -0.00098   0.00000  -0.00527  -0.00530   1.87885
    A5        1.88427  -0.00098   0.00000  -0.00528  -0.00530   1.87897
    A6        1.90506  -0.00109   0.00000  -0.00785  -0.00785   1.89721
    A7        2.10211   0.00008   0.00000   0.00121   0.00121   2.10332
    A8        2.10191   0.00008   0.00000   0.00121   0.00121   2.10312
    A9        2.07894  -0.00016   0.00000  -0.00253  -0.00254   2.07640
   A10        2.10529   0.00150   0.00000   0.00562   0.00562   2.11091
   A11        2.08604  -0.00058   0.00000  -0.00176  -0.00176   2.08428
   A12        2.09186  -0.00093   0.00000  -0.00388  -0.00388   2.08798
   A13        2.07718  -0.00163   0.00000  -0.00612  -0.00612   2.07106
   A14        2.12877  -0.00074   0.00000  -0.00634  -0.00634   2.12242
   A15        2.07717   0.00237   0.00000   0.01244   0.01244   2.08961
   A16        2.08019  -0.00019   0.00000  -0.00163  -0.00165   2.07855
   A17        2.12248   0.00041   0.00000   0.00353   0.00352   2.12600
   A18        2.08026  -0.00021   0.00000  -0.00170  -0.00172   2.07854
   A19        1.93254  -0.01131   0.00000  -0.04996  -0.05146   1.88108
   A20        1.93229  -0.01128   0.00000  -0.04983  -0.05134   1.88095
   A21        1.78871  -0.00475   0.00000  -0.02751  -0.02818   1.76053
   A22        2.08998   0.01312   0.00000   0.04214   0.04000   2.12999
   A23        1.84534   0.00699   0.00000   0.04347   0.04261   1.88795
   A24        1.84534   0.00699   0.00000   0.04360   0.04274   1.88808
   A25        2.07715  -0.00162   0.00000  -0.00608  -0.00608   2.07107
   A26        2.07733   0.00236   0.00000   0.01242   0.01242   2.08974
   A27        2.12863  -0.00075   0.00000  -0.00635  -0.00635   2.12228
   A28        2.10532   0.00149   0.00000   0.00559   0.00558   2.11090
   A29        2.08596  -0.00057   0.00000  -0.00171  -0.00171   2.08425
   A30        2.09190  -0.00093   0.00000  -0.00389  -0.00389   2.08801
    D1       -1.56235   0.00006   0.00000   0.00272   0.00273  -1.55963
    D2        1.55613  -0.00006   0.00000  -0.00272  -0.00272   1.55340
    D3        2.64032  -0.00010   0.00000   0.00075   0.00074   2.64107
    D4       -0.52438  -0.00021   0.00000  -0.00469  -0.00471  -0.52909
    D5        0.51836   0.00021   0.00000   0.00469   0.00470   0.52306
    D6       -2.64635   0.00010   0.00000  -0.00075  -0.00075  -2.64709
    D7        3.12301  -0.00021   0.00000  -0.00817  -0.00817   3.11485
    D8       -0.01667  -0.00011   0.00000  -0.00455  -0.00454  -0.02121
    D9        0.00423  -0.00010   0.00000  -0.00284  -0.00285   0.00138
   D10       -3.13545  -0.00000   0.00000   0.00078   0.00077  -3.13468
   D11       -3.12304   0.00021   0.00000   0.00831   0.00831  -3.11474
   D12        0.01673   0.00011   0.00000   0.00447   0.00447   0.02119
   D13       -0.00426   0.00010   0.00000   0.00298   0.00299  -0.00127
   D14        3.13551  -0.00000   0.00000  -0.00086  -0.00085   3.13466
   D15       -0.00073   0.00009   0.00000   0.00343   0.00343   0.00270
   D16       -3.12920   0.00013   0.00000   0.00511   0.00510  -3.12410
   D17        3.13894  -0.00001   0.00000  -0.00020  -0.00020   3.13874
   D18        0.01048   0.00004   0.00000   0.00148   0.00147   0.01195
   D19        3.11443   0.00012   0.00000   0.00525   0.00526   3.11969
   D20       -0.00286  -0.00009   0.00000  -0.00424  -0.00424  -0.00710
   D21       -0.03990   0.00006   0.00000   0.00348   0.00348  -0.03642
   D22        3.12600  -0.00015   0.00000  -0.00600  -0.00602   3.11998
   D23        2.75937  -0.00123   0.00000  -0.02031  -0.01986   2.73951
   D24        0.39874   0.00103   0.00000   0.01199   0.01155   0.41029
   D25       -1.56249  -0.00011   0.00000  -0.00426  -0.00425  -1.56674
   D26       -0.40593  -0.00101   0.00000  -0.01098  -0.01055  -0.41647
   D27       -2.76656   0.00124   0.00000   0.02131   0.02086  -2.74570
   D28        1.55540   0.00011   0.00000   0.00506   0.00506   1.56046
   D29        0.00284   0.00009   0.00000   0.00437   0.00437   0.00721
   D30       -3.12585   0.00015   0.00000   0.00606   0.00607  -3.11979
   D31       -3.11445  -0.00012   0.00000  -0.00511  -0.00513  -3.11958
   D32        0.04004  -0.00006   0.00000  -0.00343  -0.00343   0.03661
   D33        0.00079  -0.00010   0.00000  -0.00370  -0.00370  -0.00292
   D34       -3.13898   0.00001   0.00000   0.00015   0.00014  -3.13884
   D35        3.12908  -0.00014   0.00000  -0.00530  -0.00529   3.12380
   D36       -0.01068  -0.00004   0.00000  -0.00145  -0.00144  -0.01212
         Item               Value     Threshold  Converged?
 Maximum Force            0.022478     0.000450     NO 
 RMS     Force            0.003966     0.000300     NO 
 Maximum Displacement     0.124222     0.001800     NO 
 RMS     Displacement     0.027715     0.001200     NO 
 Predicted change in Energy=-2.861418D-03
 GradGradGradGradGradGradGradGradGradGradGradGradGradGradGradGradGradGrad

                          Input orientation:                          
 ---------------------------------------------------------------------
 Center     Atomic      Atomic             Coordinates (Angstroms)
 Number     Number       Type             X           Y           Z
 ---------------------------------------------------------------------
      1          6           0        4.013252   -0.000288    0.108683
      2          6           0        2.512832   -0.000203    0.011860
      3          6           0        1.804807   -1.201833   -0.015289
      4          6           0        0.421005   -1.211997   -0.072591
      5          6           0       -0.252491    0.000290   -0.105973
      6         16           0       -2.009580    0.000579   -0.212513
      7          8           0       -2.478795    1.252830    0.301617
      8          8           0       -2.478730   -1.253799    0.296549
      9          6           0        0.421572    1.212381   -0.075128
     10          6           0        1.805323    1.201727   -0.017939
     11          1           0        4.323590    0.004025    1.155969
     12          1           0        4.439326    0.882544   -0.365582
     13          1           0        4.438825   -0.887229   -0.358269
     14          1           0        2.346420   -2.139204    0.014070
     15          1           0       -0.139912   -2.138114   -0.078002
     16          1           0       -2.184470    0.003396   -1.558889
     17          1           0       -0.138810    2.138819   -0.082292
     18          1           0        2.347386    2.138907    0.009370
 ---------------------------------------------------------------------
                    Distance matrix (angstroms):
                    1          2          3          4          5
     1  C    0.000000
     2  C    1.503541   0.000000
     3  C    2.517203   1.394974   0.000000
     4  C    3.795437   2.418950   1.385025   0.000000
     5  C    4.271141   2.767833   2.384492   1.387210   0.000000
     6  S    6.031391   4.527974   4.004277   2.719864   1.760315
     7  O    6.614696   5.154647   4.947226   3.824166   2.586776
     8  O    6.614561   5.154440   4.295188   2.923436   2.586678
     9  C    3.795329   2.418945   2.783047   2.424380   1.387255
    10  C    2.517107   1.395024   2.403562   2.783054   2.384492
    11  H    1.092308   2.141926   3.028234   4.268283   4.746897
    12  H    1.088972   2.152460   3.377577   4.540909   4.781100
    13  H    1.088954   2.152501   2.674819   4.041035   4.781191
    14  H    2.713345   2.145466   1.082992   2.138796   3.368410
    15  H    4.674818   3.408195   2.159279   1.082751   2.141548
    16  H    6.418145   4.952971   4.444054   3.236474   2.417337
    17  H    4.674599   3.408150   3.865501   3.397272   2.141679
    18  H    2.713140   2.145500   3.384604   3.866034   3.368434
                    6          7          8          9         10
     6  S    0.000000
     7  O    1.432699   0.000000
     8  O    1.432728   2.506634   0.000000
     9  C    2.719897   2.925013   3.825172   0.000000
    10  C    4.004260   4.296323   4.947891   1.384973   0.000000
    11  H    6.479335   6.968634   6.970816   4.266317   3.025594
    12  H    6.510735   6.960076   7.270618   4.041720   2.675949
    13  H    6.510865   7.271091   6.958141   4.541679   3.378594
    14  H    4.858471   5.905191   4.913839   3.866021   3.384617
    15  H    2.843898   4.136784   2.528314   3.397218   3.865499
    16  H    1.357690   2.260353   2.260482   3.233365   4.441731
    17  H    2.844083   2.531381   4.138672   1.082759   2.159152
    18  H    4.858480   4.915542   5.906295   2.138773   1.082997
                   11         12         13         14         15
    11  H    0.000000
    12  H    1.760769   0.000000
    13  H    1.760832   1.769789   0.000000
    14  H    3.131543   3.695315   2.466624   0.000000
    15  H    5.102381   5.493314   4.754797   2.488036   0.000000
    16  H    7.051617   6.787604   6.789900   5.252990   3.310485
    17  H    5.099377   4.755819   5.494349   4.948448   4.276935
    18  H    3.126946   2.468856   3.696860   4.278114   4.948453
                   16         17         18
    16  H    0.000000
    17  H    3.305314   0.000000
    18  H    5.249530   2.487885   0.000000
 Stoichiometry    C7H8O2S
 Framework group  C1[X(C7H8O2S)]
 Deg. of freedom    48
 Full point group                 C1      NOp   1
 Largest Abelian subgroup         C1      NOp   1
 Largest concise Abelian subgroup C1      NOp   1
                         Standard orientation:                         
 ---------------------------------------------------------------------
 Center     Atomic      Atomic             Coordinates (Angstroms)
 Number     Number       Type             X           Y           Z
 ---------------------------------------------------------------------
      1          6           0        3.916648    0.000252   -0.094796
      2          6           0        2.415649    0.000193   -0.007392
      3          6           0        1.707505    1.201840    0.015577
      4          6           0        0.323370    1.212035    0.064195
      5          6           0       -0.350359   -0.000238    0.093083
      6         16           0       -2.108081   -0.000493    0.188594
      7          8           0       -2.574099   -1.252617   -0.328746
      8          8           0       -2.573990    1.254011   -0.323127
      9          6           0        0.323848   -1.212343    0.066203
     10          6           0        1.707931   -1.201721    0.017703
     11          1           0        4.233552   -0.003841   -1.140115
     12          1           0        4.339709   -0.882699    0.381939
     13          1           0        4.339308    0.887077    0.375012
     14          1           0        2.249320    2.139200   -0.010176
     15          1           0       -0.237541    2.138169    0.066289
     16          1           0       -2.291419   -0.003600    1.533845
     17          1           0       -0.236597   -2.138765    0.069647
     18          1           0        2.250125   -2.138912   -0.006410
 ---------------------------------------------------------------------
 Rotational constants (GHZ):           3.3920450           0.6638905           0.5661609
 Standard basis: def2TZVP (5D, 7F)
 There are   414 symmetry adapted cartesian basis functions of A   symmetry.
 There are   364 symmetry adapted basis functions of A   symmetry.
   364 basis functions,   592 primitive gaussians,   414 cartesian basis functions
    41 alpha electrons       41 beta electrons
       nuclear repulsion energy       611.4470821021 Hartrees.
 NAtoms=   18 NActive=   18 NUniq=   18 SFac= 1.00D+00 NAtFMM=   60 NAOKFM=F Big=F
 Integral buffers will be    131072 words long.
 Raffenetti 2 integral format.
 Two-electron integral symmetry is turned on.
 One-electron integrals computed using PRISM.
   1 Symmetry operations used in ECPInt.
 ECPInt:  NShTT=   10440 NPrTT=   32898 LenC2=    9870 LenP2D=   23857.
 LDataN:  DoStor=T MaxTD1= 6 Len=  172
 NBasis=   364 RedAO= T EigKep=  7.40D-06  NBF=   364
 NBsUse=   364 1.00D-06 EigRej= -1.00D+00 NBFU=   364
 Initial guess from the checkpoint file:  "/home/svss/projects/Project-Philicity/GS/hydrocarbon/set-1/GS/mol_28_hc/mol_28_hc.chk"
 B after Tr=    -0.000000   -0.000000   -0.000000
         Rot=    1.000000    0.000024    0.000675   -0.000002 Ang=   0.08 deg.
 ExpMin= 9.52D-02 ExpMax= 6.07D+04 ExpMxC= 2.07D+03 IAcc=3 IRadAn=         5 AccDes= 0.00D+00
 Harris functional with IExCor= 1009 and IRadAn=       5 diagonalized for initial guess.
 HarFok:  IExCor= 1009 AccDes= 0.00D+00 IRadAn=         5 IDoV= 1 UseB2=F ITyADJ=14
 ICtDFT=  3500011 ScaDFX=  1.000000  1.000000  1.000000  1.000000
 FoFCou: FMM=F IPFlag=           0 FMFlag=      100000 FMFlg1=           0
         NFxFlg=           0 DoJE=T BraDBF=F KetDBF=T FulRan=T
         wScrn=  0.000000 ICntrl=       500 IOpCl=  0 I1Cent=   200000004 NGrid=           0
         NMat0=    1 NMatS0=      1 NMatT0=    0 NMatD0=    1 NMtDS0=    0 NMtDT0=    0
 Petite list used in FoFCou.
 Requested convergence on RMS density matrix=1.00D-08 within 128 cycles.
 Requested convergence on MAX density matrix=1.00D-06.
 Requested convergence on             energy=1.00D-06.
 No special actions if energy rises.
 Integral accuracy reduced to 1.0D-05 until final iterations.
 Initial convergence to 1.0D-05 achieved.  Increase integral accuracy.
 SCF Done:  E(RM062X) =  -820.148077346     A.U. after   12 cycles
            NFock= 12  Conv=0.54D-08     -V/T= 2.0030
   1 Symmetry operations used in ECPInt.
 ECPInt:  NShTT=   10440 NPrTT=   32898 LenC2=    9870 LenP2D=   23857.
 LDataN:  DoStor=T MaxTD1= 7 Len=  274
 Calling FoFJK, ICntrl=      2127 FMM=F ISym2X=0 I1Cent= 0 IOpClX= 0 NMat=1 NMatS=1 NMatT=0.
 ***** Axes restored to original set *****
 -------------------------------------------------------------------
 Center     Atomic                   Forces (Hartrees/Bohr)
 Number     Number              X              Y              Z
 -------------------------------------------------------------------
      1        6          -0.000793710    0.000002060    0.000368639
      2        6           0.000316804   -0.000005275    0.000004256
      3        6           0.000270611    0.000564932    0.000229399
      4        6           0.001187688    0.000597311   -0.000220299
      5        6          -0.001936490   -0.000003900   -0.001988866
      6       16           0.010938013   -0.000035984    0.007266380
      7        8          -0.004626238   -0.000294675   -0.003480893
      8        8          -0.004628349    0.000336047   -0.003482652
      9        6           0.001192662   -0.000589428   -0.000207429
     10        6           0.000266011   -0.000559334    0.000230640
     11        1           0.000002366   -0.000000577   -0.000054288
     12        1           0.000054105    0.000077002   -0.000145740
     13        1           0.000053892   -0.000078029   -0.000145606
     14        1           0.000157509   -0.000082136    0.000001165
     15        1           0.000486183    0.000421416    0.000017855
     16        1          -0.003577780   -0.000009658    0.001585518
     17        1           0.000480559   -0.000421903    0.000021213
     18        1           0.000156164    0.000082130    0.000000708
 -------------------------------------------------------------------
 Cartesian Forces:  Max     0.010938013 RMS     0.002232161

 GradGradGradGradGradGradGradGradGradGradGradGradGradGradGradGradGradGrad
 Berny optimization.
 Using GEDIIS/GDIIS optimizer.
 FormGI is forming the generalized inverse of G from B-inverse, IUseBI=4.
 Internal  Forces:  Max     0.008421078 RMS     0.001991318
 Search for a local minimum.
 Step number   2 out of a maximum of   94
 All quantities printed in internal units (Hartrees-Bohrs-Radians)
 Mixed Optimization -- RFO/linear search
 Update second derivatives using D2CorX and points    1    2
 DE= -1.97D-03 DEPred=-2.86D-03 R= 6.90D-01
 TightC=F SS=  1.41D+00  RLast= 1.62D-01 DXNew= 5.0454D-01 4.8471D-01
 Trust test= 6.90D-01 RLast= 1.62D-01 DXMaxT set to 4.85D-01
 ITU=  1  0
 Use linear search instead of GDIIS.
     Eigenvalues ---    0.00671   0.00813   0.01613   0.01721   0.02204
     Eigenvalues ---    0.02244   0.02255   0.02291   0.02326   0.02329
     Eigenvalues ---    0.02344   0.07186   0.07375   0.08954   0.09668
     Eigenvalues ---    0.15664   0.15998   0.15999   0.16000   0.16000
     Eigenvalues ---    0.16000   0.16000   0.16746   0.19178   0.22000
     Eigenvalues ---    0.23008   0.23970   0.24422   0.24990   0.24997
     Eigenvalues ---    0.27695   0.32544   0.34743   0.35116   0.35157
     Eigenvalues ---    0.35247   0.35978   0.36007   0.36179   0.37001
     Eigenvalues ---    0.43470   0.43539   0.47263   0.47932   0.48478
     Eigenvalues ---    0.48951   1.04293   1.04326
 RFO step:  Lambda=-7.41841602D-04 EMin= 6.70845535D-03
 Quartic linear search produced a step of -0.23563.
 Iteration  1 RMS(Cart)=  0.01367388 RMS(Int)=  0.00020011
 Iteration  2 RMS(Cart)=  0.00020982 RMS(Int)=  0.00007665
 Iteration  3 RMS(Cart)=  0.00000005 RMS(Int)=  0.00007665
 Variable       Old X    -DE/DX   Delta X   Delta X   Delta X     New X
                                 (Linear)    (Quad)   (Total)
    R1        2.84128  -0.00068  -0.00316   0.00355   0.00040   2.84168
    R2        2.06416  -0.00005  -0.00092   0.00138   0.00046   2.06462
    R3        2.05786   0.00015  -0.00086   0.00171   0.00085   2.05871
    R4        2.05782   0.00015  -0.00086   0.00171   0.00085   2.05868
    R5        2.63612  -0.00103  -0.00109  -0.00002  -0.00111   2.63501
    R6        2.63621  -0.00102  -0.00110  -0.00000  -0.00110   2.63511
    R7        2.61732   0.00025  -0.00073   0.00156   0.00083   2.61815
    R8        2.04656   0.00015  -0.00138   0.00255   0.00117   2.04773
    R9        2.62145   0.00057  -0.00307   0.00589   0.00282   2.62427
   R10        2.04610  -0.00061  -0.00191   0.00179  -0.00011   2.04599
   R11        3.32651   0.00178   0.00755  -0.00757  -0.00002   3.32650
   R12        2.62153   0.00057  -0.00308   0.00592   0.00284   2.62437
   R13        2.70741   0.00001  -0.00021   0.00033   0.00012   2.70753
   R14        2.70746  -0.00002  -0.00019   0.00029   0.00010   2.70756
   R15        2.56566  -0.00111   0.02410  -0.04434  -0.02024   2.54542
   R16        2.61722   0.00025  -0.00072   0.00154   0.00082   2.61804
   R17        2.04612  -0.00061  -0.00190   0.00180  -0.00011   2.04601
   R18        2.04657   0.00015  -0.00138   0.00255   0.00117   2.04774
    A1        1.92332   0.00007  -0.00212   0.00423   0.00212   1.92544
    A2        1.94159  -0.00003  -0.00103   0.00147   0.00044   1.94203
    A3        1.94167  -0.00003  -0.00103   0.00147   0.00044   1.94211
    A4        1.87885   0.00003   0.00125  -0.00175  -0.00050   1.87835
    A5        1.87897   0.00003   0.00125  -0.00176  -0.00050   1.87847
    A6        1.89721  -0.00005   0.00185  -0.00396  -0.00211   1.89510
    A7        2.10332   0.00019  -0.00029   0.00129   0.00101   2.10432
    A8        2.10312   0.00019  -0.00029   0.00130   0.00101   2.10413
    A9        2.07640  -0.00038   0.00060  -0.00269  -0.00210   2.07431
   A10        2.11091   0.00025  -0.00133   0.00268   0.00136   2.11226
   A11        2.08428  -0.00022   0.00041  -0.00138  -0.00097   2.08331
   A12        2.08798  -0.00003   0.00091  -0.00131  -0.00040   2.08758
   A13        2.07106   0.00110   0.00144   0.00141   0.00285   2.07391
   A14        2.12242  -0.00075   0.00149  -0.00552  -0.00403   2.11840
   A15        2.08961  -0.00035  -0.00293   0.00404   0.00110   2.09071
   A16        2.07855   0.00117   0.00039   0.00286   0.00323   2.08178
   A17        2.12600  -0.00232  -0.00083  -0.00547  -0.00631   2.11970
   A18        2.07854   0.00115   0.00040   0.00277   0.00316   2.08170
   A19        1.88108   0.00840   0.01213   0.01255   0.02443   1.90551
   A20        1.88095   0.00842   0.01210   0.01268   0.02453   1.90548
   A21        1.76053   0.00434   0.00664   0.00410   0.01082   1.77135
   A22        2.12999  -0.00553  -0.00943   0.01279   0.00293   2.13292
   A23        1.88795  -0.00677  -0.01004  -0.02152  -0.03148   1.85647
   A24        1.88808  -0.00678  -0.01007  -0.02149  -0.03147   1.85661
   A25        2.07107   0.00110   0.00143   0.00142   0.00286   2.07393
   A26        2.08974  -0.00035  -0.00293   0.00401   0.00108   2.09082
   A27        2.12228  -0.00075   0.00150  -0.00550  -0.00401   2.11827
   A28        2.11090   0.00025  -0.00132   0.00266   0.00134   2.11225
   A29        2.08425  -0.00022   0.00040  -0.00135  -0.00095   2.08330
   A30        2.08801  -0.00003   0.00092  -0.00132  -0.00040   2.08761
    D1       -1.55963   0.00000  -0.00064   0.00220   0.00156  -1.55807
    D2        1.55340  -0.00000   0.00064  -0.00216  -0.00152   1.55189
    D3        2.64107  -0.00005  -0.00018   0.00069   0.00052   2.64158
    D4       -0.52909  -0.00006   0.00111  -0.00367  -0.00256  -0.53165
    D5        0.52306   0.00006  -0.00111   0.00371   0.00260   0.52566
    D6       -2.64709   0.00005   0.00018  -0.00065  -0.00048  -2.64757
    D7        3.11485  -0.00001   0.00192  -0.00603  -0.00411   3.11074
    D8       -0.02121   0.00000   0.00107  -0.00334  -0.00227  -0.02348
    D9        0.00138  -0.00001   0.00067  -0.00180  -0.00113   0.00025
   D10       -3.13468  -0.00000  -0.00018   0.00090   0.00071  -3.13397
   D11       -3.11474   0.00001  -0.00196   0.00612   0.00416  -3.11057
   D12        0.02119  -0.00000  -0.00105   0.00328   0.00223   0.02343
   D13       -0.00127   0.00001  -0.00070   0.00189   0.00119  -0.00008
   D14        3.13466   0.00000   0.00020  -0.00095  -0.00074   3.13392
   D15        0.00270  -0.00005  -0.00081   0.00065  -0.00016   0.00254
   D16       -3.12410   0.00008  -0.00120   0.00599   0.00478  -3.11932
   D17        3.13874  -0.00006   0.00005  -0.00205  -0.00201   3.13674
   D18        0.01195   0.00007  -0.00035   0.00328   0.00293   0.01488
   D19        3.11969   0.00028  -0.00124   0.01328   0.01203   3.13172
   D20       -0.00710   0.00014   0.00100   0.00048   0.00149  -0.00561
   D21       -0.03642   0.00014  -0.00082   0.00797   0.00713  -0.02928
   D22        3.11998   0.00000   0.00142  -0.00483  -0.00341   3.11657
   D23        2.73951   0.00266   0.00468   0.01269   0.01755   2.75706
   D24        0.41029  -0.00275  -0.00272  -0.02259  -0.02553   0.38476
   D25       -1.56674  -0.00005   0.00100  -0.00499  -0.00401  -1.57075
   D26       -0.41647   0.00277   0.00249   0.02507   0.02778  -0.38870
   D27       -2.74570  -0.00265  -0.00492  -0.01020  -0.01530  -2.76099
   D28        1.56046   0.00006  -0.00119   0.00739   0.00622   1.56668
   D29        0.00721  -0.00014  -0.00103  -0.00039  -0.00144   0.00578
   D30       -3.11979  -0.00000  -0.00143   0.00491   0.00347  -3.11632
   D31       -3.11958  -0.00028   0.00121  -0.01320  -0.01198  -3.13156
   D32        0.03661  -0.00014   0.00081  -0.00790  -0.00707   0.02954
   D33       -0.00292   0.00005   0.00087  -0.00083   0.00005  -0.00287
   D34       -3.13884   0.00006  -0.00003   0.00202   0.00199  -3.13685
   D35        3.12380  -0.00008   0.00125  -0.00614  -0.00489   3.11891
   D36       -0.01212  -0.00007   0.00034  -0.00330  -0.00295  -0.01507
         Item               Value     Threshold  Converged?
 Maximum Force            0.008421     0.000450     NO 
 RMS     Force            0.001991     0.000300     NO 
 Maximum Displacement     0.052918     0.001800     NO 
 RMS     Displacement     0.013598     0.001200     NO 
 Predicted change in Energy=-6.081188D-04
 GradGradGradGradGradGradGradGradGradGradGradGradGradGradGradGradGradGrad

                          Input orientation:                          
 ---------------------------------------------------------------------
 Center     Atomic      Atomic             Coordinates (Angstroms)
 Number     Number       Type             X           Y           Z
 ---------------------------------------------------------------------
      1          6           0        4.019237   -0.000269    0.112200
      2          6           0        2.519011   -0.000196    0.009281
      3          6           0        1.810093   -1.200586   -0.019170
      4          6           0        0.425888   -1.211196   -0.077231
      5          6           0       -0.252202    0.000254   -0.110069
      6         16           0       -2.010258    0.000609   -0.199031
      7          8           0       -2.505796    1.254515    0.285711
      8          8           0       -2.506128   -1.254250    0.282940
      9          6           0        0.426409    1.211528   -0.079306
     10          6           0        1.810562    1.200480   -0.021426
     11          1           0        4.327617    0.003856    1.160319
     12          1           0        4.447891    0.882350   -0.361171
     13          1           0        4.447394   -0.886818   -0.354185
     14          1           0        2.351882   -2.138531    0.011536
     15          1           0       -0.131126   -2.139611   -0.079001
     16          1           0       -2.211536    0.002208   -1.530886
     17          1           0       -0.130136    2.140234   -0.082428
     18          1           0        2.352749    2.138254    0.007568
 ---------------------------------------------------------------------
                    Distance matrix (angstroms):
                    1          2          3          4          5
     1  C    0.000000
     2  C    1.503752   0.000000
     3  C    2.517605   1.394385   0.000000
     4  C    3.796628   2.419746   1.385464   0.000000
     5  C    4.277218   2.773782   2.388167   1.388702   0.000000
     6  S    6.037522   4.534057   4.008779   2.723621   1.760305
     7  O    6.646852   5.186463   4.974674   3.847886   2.609310
     8  O    6.646955   5.186479   4.327114   2.954369   2.609295
     9  C    3.796516   2.419733   2.781456   2.422725   1.388756
    10  C    2.517518   1.394441   2.401067   2.781477   2.388178
    11  H    1.092551   2.143819   3.029818   4.269821   4.752751
    12  H    1.089423   2.153300   3.378397   4.543134   4.788739
    13  H    1.089405   2.153339   2.676946   4.044062   4.788809
    14  H    2.713369   2.144857   1.083613   2.139459   3.372009
    15  H    4.673206   3.407068   2.157239   1.082692   2.143513
    16  H    6.443777   4.974956   4.461558   3.246762   2.420271
    17  H    4.672999   3.407027   3.863880   3.397244   2.143637
    18  H    2.713191   2.144904   3.382756   3.865074   3.372039
                    6          7          8          9         10
     6  S    0.000000
     7  O    1.432764   0.000000
     8  O    1.432779   2.508767   0.000000
     9  C    2.723601   2.955150   3.848514   0.000000
    10  C    4.008727   4.327609   4.975153   1.385406   0.000000
    11  H    6.482014   7.001758   7.003763   4.267853   3.027210
    12  H    6.520080   6.993621   7.303309   4.044765   2.678085
    13  H    6.520189   7.303535   6.992311   4.543890   3.379412
    14  H    4.862975   5.931692   4.945288   3.865048   3.382766
    15  H    2.850629   4.158385   2.560372   3.397202   3.863893
    16  H    1.346979   2.225958   2.226081   3.244733   4.459999
    17  H    2.850693   2.561989   4.159490   1.082703   2.157120
    18  H    4.862924   4.946091   5.932419   2.139428   1.083618
                   11         12         13         14         15
    11  H    0.000000
    12  H    1.761008   0.000000
    13  H    1.761070   1.769182   0.000000
    14  H    3.132579   3.695658   2.468138   0.000000
    15  H    5.100074   5.493566   4.754793   2.484658   0.000000
    16  H    7.071287   6.818420   6.820289   5.271300   3.320160
    17  H    5.097067   4.755870   5.494604   4.947431   4.279847
    18  H    3.128034   2.470402   3.697224   4.276786   4.947449
                   16         17         18
    16  H    0.000000
    17  H    3.316838   0.000000
    18  H    5.268987   2.484516   0.000000
 Stoichiometry    C7H8O2S
 Framework group  C1[X(C7H8O2S)]
 Deg. of freedom    48
 Full point group                 C1      NOp   1
 Largest Abelian subgroup         C1      NOp   1
 Largest concise Abelian subgroup C1      NOp   1
                         Standard orientation:                         
 ---------------------------------------------------------------------
 Center     Atomic      Atomic             Coordinates (Angstroms)
 Number     Number       Type             X           Y           Z
 ---------------------------------------------------------------------
      1          6           0        3.925433    0.000115   -0.099619
      2          6           0        2.424594    0.000148   -0.006068
      3          6           0        1.715621    1.200594    0.018352
      4          6           0        0.331081    1.211313    0.067773
      5          6           0       -0.347310   -0.000085    0.095977
      6         16           0       -2.105888   -0.000306    0.173961
      7          8           0       -2.598503   -1.254007   -0.314279
      8          8           0       -2.598625    1.254758   -0.310683
      9          6           0        0.331370   -1.211412    0.069052
     10          6           0        1.715858   -1.200472    0.019819
     11          1           0        4.240351   -0.003692   -1.145793
     12          1           0        4.351044   -0.882699    0.376128
     13          1           0        4.350750    0.886472    0.369723
     14          1           0        2.257676    2.138499   -0.008661
     15          1           0       -0.225849    2.139779    0.066372
     16          1           0       -2.315477   -0.002325    1.504533
     17          1           0       -0.225268   -2.140067    0.068393
     18          1           0        2.258130   -2.138287   -0.006098
 ---------------------------------------------------------------------
 Rotational constants (GHZ):           3.4041078           0.6588819           0.5622197
 Standard basis: def2TZVP (5D, 7F)
 There are   414 symmetry adapted cartesian basis functions of A   symmetry.
 There are   364 symmetry adapted basis functions of A   symmetry.
   364 basis functions,   592 primitive gaussians,   414 cartesian basis functions
    41 alpha electrons       41 beta electrons
       nuclear repulsion energy       610.5571455083 Hartrees.
 NAtoms=   18 NActive=   18 NUniq=   18 SFac= 1.00D+00 NAtFMM=   60 NAOKFM=F Big=F
 Integral buffers will be    131072 words long.
 Raffenetti 2 integral format.
 Two-electron integral symmetry is turned on.
 One-electron integrals computed using PRISM.
   1 Symmetry operations used in ECPInt.
 ECPInt:  NShTT=   10440 NPrTT=   32898 LenC2=    9863 LenP2D=   23837.
 LDataN:  DoStor=T MaxTD1= 6 Len=  172
 NBasis=   364 RedAO= T EigKep=  7.40D-06  NBF=   364
 NBsUse=   364 1.00D-06 EigRej= -1.00D+00 NBFU=   364
 Initial guess from the checkpoint file:  "/home/svss/projects/Project-Philicity/GS/hydrocarbon/set-1/GS/mol_28_hc/mol_28_hc.chk"
 B after Tr=     0.000000   -0.000000    0.000000
         Rot=    1.000000    0.000047   -0.000241    0.000004 Ang=   0.03 deg.
 ExpMin= 9.52D-02 ExpMax= 6.07D+04 ExpMxC= 2.07D+03 IAcc=3 IRadAn=         5 AccDes= 0.00D+00
 Harris functional with IExCor= 1009 and IRadAn=       5 diagonalized for initial guess.
 HarFok:  IExCor= 1009 AccDes= 0.00D+00 IRadAn=         5 IDoV= 1 UseB2=F ITyADJ=14
 ICtDFT=  3500011 ScaDFX=  1.000000  1.000000  1.000000  1.000000
 FoFCou: FMM=F IPFlag=           0 FMFlag=      100000 FMFlg1=           0
         NFxFlg=           0 DoJE=T BraDBF=F KetDBF=T FulRan=T
         wScrn=  0.000000 ICntrl=       500 IOpCl=  0 I1Cent=   200000004 NGrid=           0
         NMat0=    1 NMatS0=      1 NMatT0=    0 NMatD0=    1 NMtDS0=    0 NMtDT0=    0
 Petite list used in FoFCou.
 Requested convergence on RMS density matrix=1.00D-08 within 128 cycles.
 Requested convergence on MAX density matrix=1.00D-06.
 Requested convergence on             energy=1.00D-06.
 No special actions if energy rises.
 Integral accuracy reduced to 1.0D-05 until final iterations.
 Problem detected with inexpensive integrals.
 Switching to full accuracy and repeating last cycle.
 SCF Done:  E(RM062X) =  -820.148473112     A.U. after   14 cycles
            NFock= 14  Conv=0.82D-08     -V/T= 2.0030
   1 Symmetry operations used in ECPInt.
 ECPInt:  NShTT=   10440 NPrTT=   32898 LenC2=    9863 LenP2D=   23837.
 LDataN:  DoStor=T MaxTD1= 7 Len=  274
 Calling FoFJK, ICntrl=      2127 FMM=F ISym2X=0 I1Cent= 0 IOpClX= 0 NMat=1 NMatS=1 NMatT=0.
 ***** Axes restored to original set *****
 -------------------------------------------------------------------
 Center     Atomic                   Forces (Hartrees/Bohr)
 Number     Number              X              Y              Z
 -------------------------------------------------------------------
      1        6          -0.000429335   -0.000000753   -0.000088266
      2        6           0.000452096    0.000003144    0.000277383
      3        6          -0.000038682   -0.000138034   -0.000069208
      4        6           0.000336673    0.000667702    0.000184325
      5        6          -0.000296274    0.000003704    0.001136007
      6       16          -0.000122618   -0.000008684   -0.000773873
      7        8           0.000487519   -0.000161792    0.001783543
      8        8           0.000495033    0.000174712    0.001777114
      9        6           0.000334207   -0.000657830    0.000192259
     10        6          -0.000035472    0.000128671   -0.000056790
     11        1          -0.000274525   -0.000000746   -0.000174905
     12        1          -0.000173517   -0.000063911    0.000016595
     13        1          -0.000173120    0.000064769    0.000015611
     14        1          -0.000223954    0.000212251   -0.000049267
     15        1           0.000135261    0.000430877   -0.000066932
     16        1          -0.000380207   -0.000003413   -0.003982771
     17        1           0.000130848   -0.000438495   -0.000070927
     18        1          -0.000223934   -0.000212172   -0.000049897
 -------------------------------------------------------------------
 Cartesian Forces:  Max     0.003982771 RMS     0.000711874

 GradGradGradGradGradGradGradGradGradGradGradGradGradGradGradGradGradGrad
 Berny optimization.
 Using GEDIIS/GDIIS optimizer.
 FormGI is forming the generalized inverse of G from B-inverse, IUseBI=4.
 Internal  Forces:  Max     0.003994901 RMS     0.000682624
 Search for a local minimum.
 Step number   3 out of a maximum of   94
 All quantities printed in internal units (Hartrees-Bohrs-Radians)
 Mixed Optimization -- En-DIIS/RFO-DIIS
 Update second derivatives using D2CorX and points    1    2    3
 DE= -3.96D-04 DEPred=-6.08D-04 R= 6.51D-01
 TightC=F SS=  1.41D+00  RLast= 8.03D-02 DXNew= 8.1519D-01 2.4090D-01
 Trust test= 6.51D-01 RLast= 8.03D-02 DXMaxT set to 4.85D-01
 ITU=  1  1  0
 Use linear search instead of GDIIS.
     Eigenvalues ---    0.00671   0.00813   0.01610   0.01714   0.02202
     Eigenvalues ---    0.02244   0.02255   0.02292   0.02328   0.02330
     Eigenvalues ---    0.02347   0.07181   0.07356   0.08860   0.11399
     Eigenvalues ---    0.15806   0.15997   0.15999   0.16000   0.16000
     Eigenvalues ---    0.16000   0.16019   0.17163   0.21261   0.22000
     Eigenvalues ---    0.23163   0.24194   0.24389   0.24987   0.25000
     Eigenvalues ---    0.27525   0.32938   0.34791   0.35137   0.35157
     Eigenvalues ---    0.35979   0.36007   0.36179   0.36190   0.38508
     Eigenvalues ---    0.43433   0.43524   0.47263   0.48159   0.48648
     Eigenvalues ---    0.48950   1.04294   1.04325
 RFO step:  Lambda=-8.11871345D-05 EMin= 6.70782690D-03
 Quartic linear search produced a step of -0.24621.
 Iteration  1 RMS(Cart)=  0.00421461 RMS(Int)=  0.00002990
 Iteration  2 RMS(Cart)=  0.00001789 RMS(Int)=  0.00002613
 Iteration  3 RMS(Cart)=  0.00000000 RMS(Int)=  0.00002613
 Variable       Old X    -DE/DX   Delta X   Delta X   Delta X     New X
                                 (Linear)    (Quad)   (Total)
    R1        2.84168  -0.00106  -0.00010  -0.00256  -0.00266   2.83902
    R2        2.06462  -0.00025  -0.00011  -0.00050  -0.00061   2.06401
    R3        2.05871  -0.00013  -0.00021  -0.00016  -0.00037   2.05834
    R4        2.05868  -0.00013  -0.00021  -0.00016  -0.00037   2.05831
    R5        2.63501  -0.00039   0.00027  -0.00098  -0.00070   2.63430
    R6        2.63511  -0.00039   0.00027  -0.00098  -0.00070   2.63441
    R7        2.61815  -0.00057  -0.00020  -0.00067  -0.00087   2.61728
    R8        2.04773  -0.00030  -0.00029  -0.00047  -0.00076   2.04698
    R9        2.62427  -0.00082  -0.00069  -0.00090  -0.00160   2.62267
   R10        2.04599  -0.00044   0.00003  -0.00115  -0.00112   2.04487
   R11        3.32650  -0.00042   0.00000   0.00036   0.00037   3.32686
   R12        2.62437  -0.00083  -0.00070  -0.00091  -0.00161   2.62276
   R13        2.70753   0.00029  -0.00003   0.00018   0.00015   2.70768
   R14        2.70756   0.00027  -0.00002   0.00017   0.00014   2.70770
   R15        2.54542   0.00399   0.00498   0.01133   0.01632   2.56174
   R16        2.61804  -0.00056  -0.00020  -0.00066  -0.00086   2.61718
   R17        2.04601  -0.00044   0.00003  -0.00115  -0.00113   2.04489
   R18        2.04774  -0.00030  -0.00029  -0.00047  -0.00076   2.04699
    A1        1.92544  -0.00025  -0.00052  -0.00095  -0.00147   1.92396
    A2        1.94203  -0.00011  -0.00011  -0.00051  -0.00062   1.94142
    A3        1.94211  -0.00011  -0.00011  -0.00051  -0.00061   1.94149
    A4        1.87835   0.00018   0.00012   0.00079   0.00092   1.87927
    A5        1.87847   0.00018   0.00012   0.00079   0.00092   1.87938
    A6        1.89510   0.00014   0.00052   0.00048   0.00100   1.89610
    A7        2.10432   0.00002  -0.00025   0.00022  -0.00003   2.10429
    A8        2.10413   0.00002  -0.00025   0.00022  -0.00003   2.10410
[...]
 07,0.1574175,-0.5890223,0.0622328,-0.1233153,-0.0020432,0.1772315,0.00
 11639,0.0082375,-0.0208041,0.011169,-0.0693324,-0.2821687,0.1713072,-0
 .0096405,0.1699502,0.0131383,0.016422,-0.01449,0.0146075,-0.120498,-0.
 0424081,0.0000306,-0.0128816,0.0000465,0.0854191,-0.0005557,-0.0394335
 ,-0.0005062,-0.0536511,-0.0036837,-0.0015334,0.0002982,-0.0650464,-0.0
 410409,0.0606641,0.0574927,0.0593425,0.0501348,-0.0033737,0.0014756,0.
 0002053,0.0658071,-0.0420494,-0.060045,0.0569627,-0.0587833,0.050889,0
 .0064599,0.0672798,-0.0039311,0.0604945,-0.0141547,0.0033837,0.0012422
 ,0.0027645,0.1274133,0.0865299,-0.0367685,-0.0045782,-0.0225942,0.0511
 861,-0.0033175,-0.0029279,0.0010226,0.1247876,-0.2415454,0.0000259,-0.
 0044864,0.0000673,-0.0658841,0.0000399,-0.0028897,0.0000149,-0.1663355
 ,0.0864547,0.0367938,-0.0046484,0.0226326,0.0511009,0.003436,-0.002955
 4,-0.0009394,0.124783,0.0064612,-0.0672694,-0.0038322,-0.0605118,-0.01
 41308,-0.0031754,0.0013281,-0.0025692,0.127392\Polar=139.0664564,0.000
 9211,103.0747634,3.2512352,-0.0240404,64.8631802\Quadrupole=-1.2196162
 ,1.0182185,0.2013977,0.0008308,4.9648138,-0.0070239\PG=C01 [X(C7H8O2S1
 )]\NImag=0\\0.49856395,-0.00010931,0.59510377,-0.01529343,-0.00006525,
 0.54447676,-0.22412476,0.00006744,-0.00429237,0.65657692,-0.00000311,-
 0.08938448,0.00001205,0.00010034,0.67411462,-0.00956884,0.00001996,-0.
 07295774,0.02511791,-0.00035522,0.18567783,-0.02248378,-0.02970216,-0.
 00151994,-0.17503936,-0.03991275,-0.00463483,0.70690970,-0.00448957,0.
 00326686,-0.00107001,-0.12024099,-0.27527163,-0.00422858,-0.04006092,0
 .71823066,-0.00155258,-0.00324588,0.00598726,-0.00444883,-0.00161521,-
 0.07134063,0.02627391,-0.00395565,0.13891230,0.00258770,-0.00197849,0.
 00167367,-0.02742895,-0.08952951,-0.00144027,-0.34887832,0.03840972,-0
 .01366790,0.70019894,-0.00121592,-0.00473585,0.00036175,-0.02921869,0.
 04402862,-0.00233841,-0.04061049,-0.13173990,-0.00127090,0.04255678,0.
 72962515,0.00016344,-0.00129760,0.00708323,-0.00149848,-0.00314772,0.0
 0625239,-0.01326085,0.00196412,-0.06530386,0.02303256,-0.00419104,0.14
 334865,-0.00179703,-0.00002193,-0.00225795,0.00261418,-0.00001517,0.00
 109127,-0.03260129,0.02537251,-0.00233070,-0.16067166,0.11641692,-0.00
 476914,0.55717873,-0.00001439,-0.00057158,-0.00000139,-0.00000475,-0.0
 8216733,0.00005502,0.08612225,0.03599575,0.00307528,0.05549006,-0.2897
 5271,0.00524503,-0.00000012,0.70350600,0.00006628,-0.00000044,-0.00064
 936,0.00008234,0.00005110,-0.00801891,-0.00158092,0.00161429,0.0094703
 5,-0.00483344,0.00574916,-0.06322246,0.02346433,-0.00039153,0.14267307
 ,0.00079537,0.00001547,0.00167078,-0.00234805,-0.00000038,-0.00093477,
 0.00594055,0.00284457,0.00105776,-0.02183372,0.01492787,-0.00140941,-0
 .17072347,0.00002130,-0.01714786,0.56550357,-0.00000126,-0.00040608,-0
 .00000044,0.00000070,-0.00499373,0.00000319,0.00589089,-0.00539222,0.0
 0072107,0.01972166,0.00997775,0.00113779,0.00001711,-0.07473494,0.0000
 2074,0.00010845,1.14234084,-0.00020183,-0.00000186,-0.00113512,0.00053
 056,0.00000510,-0.00085611,-0.00024808,0.00068024,0.00776331,-0.000702
 20,-0.00207595,-0.00160379,-0.00800009,0.00002420,-0.07515848,-0.08347
 274,0.00015714,0.63986323,-0.00009748,0.00002434,-0.00013879,0.0004173
 6,0.00094234,0.00026252,-0.00183065,0.00199890,-0.00139971,-0.00573658
 ,-0.00545089,0.00132411,-0.00392897,0.03105091,0.01394187,-0.15436761,
 0.17373682,0.06663789,0.14089516,0.00010323,0.00028106,0.00021592,-0.0
 0070626,-0.00000548,-0.00029917,0.00040241,-0.00034979,0.00022061,0.00
 415553,0.00220509,-0.00041983,-0.00286505,-0.00743629,-0.00334785,0.16
 186502,-0.51138827,-0.16885226,-0.18938709,0.53615286,0.00003465,0.000
 02156,0.00004786,-0.00015407,0.00066806,0.00002632,-0.00061658,-0.0009
 7523,-0.00106050,0.00262059,0.00066756,0.00148686,-0.00216668,-0.00380
 462,0.01182933,0.06703354,-0.18165809,-0.16720155,-0.08162683,0.195707
 07,0.13699650,-0.00009766,-0.00002911,-0.00013915,0.00041725,-0.000941
 81,0.00026364,0.00033599,-0.00074408,-0.00079670,-0.00091109,-0.000469
 76,0.00052937,-0.00393935,-0.03106175,0.01393708,-0.15447885,-0.173871
 23,0.06657841,0.01810774,0.01803038,0.00059961,0.14103470,-0.00010271,
 0.00027676,-0.00021684,0.00070650,-0.00000301,0.00029884,-0.00097442,0
 .00231373,-0.00041571,0.00045647,-0.00456078,-0.00012782,0.00286492,-0
 .00743359,0.00333971,-0.16200875,-0.51141778,0.16861141,-0.01804150,-0
 .01389127,0.01721284,0.18954460,0.53618862,0.00003439,-0.00002136,0.00
 004734,-0.00015438,-0.00066743,0.00002793,0.00069926,-0.00025958,-0.00
 018380,-0.00081535,0.00121324,0.00049742,-0.00215886,0.00379723,0.0118
 2659,0.06699052,0.18142133,-0.16697485,0.00058463,-0.01723248,0.022707
 17,-0.08157436,-0.19543161,0.13675332,0.00261886,0.00200909,0.00167599
 ,-0.02740487,0.08954780,-0.00156894,-0.06039263,-0.03155583,-0.0017199
 6,0.07053932,-0.02883808,0.00132728,-0.16071447,-0.05550943,-0.0047508
 3,-0.02184763,-0.01971787,-0.00066393,-0.00090843,-0.00045167,-0.00081
 552,-0.00574178,-0.00415367,0.00261139,0.70024031,0.00122930,-0.004744
 28,-0.00034232,0.02923246,0.04399620,0.00228365,-0.03708235,-0.0206530
 6,-0.00138150,0.02878862,-0.06186629,0.00124473,-0.11643347,-0.2896182
 6,-0.00542925,-0.01491684,0.00998925,0.00206387,0.00047150,-0.00456049
 ,-0.00120714,0.00545729,0.00220810,-0.00066654,-0.04254729,0.72959112,
 0.00016489,0.00131639,0.00705504,-0.00153868,0.00309304,0.00624672,-0.
 00161402,-0.00064315,-0.00715365,0.00128271,-0.00114163,0.01012690,-0.
 00459773,-0.00492624,-0.06321500,-0.00138984,-0.00115374,-0.00160722,0
 .00052906,0.00013536,0.00050043,0.00131023,0.00041800,0.00149245,0.023
 06324,0.00337784,0.14332675,-0.02250604,0.02971093,-0.00156543,-0.1749
 1481,0.03982792,-0.00468828,0.07349326,0.02622722,0.00215107,-0.060358
 91,0.03709217,-0.00166734,-0.03265740,-0.08609008,-0.00145988,0.005947
 50,-0.00589545,-0.00023656,0.00033464,0.00097499,0.00069988,-0.0018327
 7,-0.00040128,-0.00061615,-0.34900212,0.04068280,-0.01330965,0.7070541
 9,0.00451125,0.00328465,0.00107550,0.12012270,-0.27525280,0.00452259,-
 0.02628872,-0.05827206,-0.00063406,0.03157531,-0.02067995,0.00066609,-
 0.02534304,0.03604297,-0.00164823,-0.00285173,-0.00539182,-0.00066377,
 0.00074238,0.00231298,0.00025690,-0.00200269,-0.00035018,0.00097059,-0
 .03833811,-0.13174152,-0.00186587,0.04014274,0.71810438,-0.00155754,0.
 00325049,0.00595029,-0.00461799,0.00191211,-0.07136396,0.00218614,0.00
 072977,0.00989503,-0.00176138,0.00140046,-0.00715598,-0.00229853,-0.00
 311361,0.00947873,0.00106370,-0.00070649,0.00775692,-0.00079836,0.0004
 1480,-0.00018407,-0.00139219,-0.00021754,-0.00106141,-0.01360676,0.001
 37122,-0.06528527,0.02620562,0.00310645,0.13889666,-0.06322149,-0.0002
 4631,-0.07235361,-0.01239342,-0.00012474,-0.03266600,-0.00087381,0.000
 92334,0.00070320,-0.00008376,0.00001662,0.00151271,-0.00095892,-0.0000
 0146,-0.00012021,0.00105873,-0.00000065,-0.00028401,-0.00020068,0.0001
 5378,0.00004576,-0.00020069,-0.00015318,0.00004552,-0.00007842,-0.0000
 1809,0.00150895,-0.00085156,-0.00091796,0.00070876,0.07185039,-0.00022
 993,-0.04421501,-0.00090475,-0.00001739,-0.00026545,0.00001164,-0.0020
 7805,-0.00036152,0.00050127,0.00122770,-0.00069096,0.00046250,0.000006
 43,0.00123819,-0.00000090,-0.00000371,0.00011830,-0.00000152,-0.000002
 13,-0.00002978,-0.00001132,0.00000325,-0.00002887,0.00001190,-0.001240
 57,-0.00069175,-0.00045709,0.00208605,-0.00036475,-0.00049736,0.000276
 90,0.04410774,-0.06849784,-0.00090661,-0.29349071,-0.00256118,0.000004
 67,0.00100205,0.00048073,0.00076676,0.00039901,-0.00063794,0.00002116,
 0.00009127,0.00056800,0.00000066,-0.00007460,-0.00020624,-0.00000010,-
 0.00010770,0.00002079,-0.00002393,0.00002469,0.00002092,0.00002423,0.0
 0002472,-0.00064003,-0.00001968,0.00009650,0.00047862,-0.00076551,0.00
 041400,0.07767387,0.00099284,0.31799229,-0.08625823,-0.08209840,0.0467
 3299,-0.01347899,-0.02812438,0.01456845,-0.00561409,0.00174397,-0.0001
 8457,-0.00002876,-0.00151948,-0.00088690,-0.00030512,0.00020193,0.0000
 6077,0.00051983,-0.00007031,0.00004637,-0.00012665,0.00014237,0.000014
 34,-0.00011214,0.00002098,0.00000420,0.00011909,-0.00002485,-0.0003697
 8,0.00158196,-0.00172250,-0.00061547,0.00311028,0.00798679,-0.00324119
 ,0.09638317,-0.08473924,-0.22938801,0.09777397,-0.00015105,0.00028029,
 -0.00199347,-0.00033873,0.00035671,0.00057482,0.00005682,-0.00009127,0
 .00005197,0.00032656,0.00036235,0.00003092,-0.00003558,0.00000811,0.00
 019606,-0.00006714,0.00002548,-0.00001187,-0.00004602,0.00000880,-0.00
 003389,-0.00070151,0.00010265,-0.00060994,0.00215871,0.00040796,-0.000
 38176,0.00107103,0.00083484,-0.00076048,0.09246315,0.24550418,0.048806
 63,0.09819506,-0.09813081,-0.00355896,-0.00436366,0.00046493,-0.000327
 98,0.00013013,0.00062490,-0.00103570,0.00008186,-0.00001886,0.00035759
 ,-0.00051017,0.00002540,-0.00033204,-0.00002508,0.00004838,0.00006147,
 -0.00005275,-0.00000625,0.00004058,0.00004018,-0.00000919,0.00016298,0
 .00001847,-0.00008669,-0.00014685,0.00009891,0.00043473,0.01236682,0.0
 2625079,-0.01300411,-0.04965475,-0.10766579,0.10291185,-0.08618449,0.0
 8236785,0.04604284,-0.01344522,0.02823800,0.01437099,0.00158734,0.0017
 2911,-0.00061167,0.00011639,0.00002342,-0.00036430,-0.00030101,-0.0002
 0546,0.00006054,0.00051628,0.00007025,0.00004569,-0.00011129,-0.000021
 64,0.00000415,-0.00012587,-0.00014206,0.00001445,-0.00002542,0.0015262
 6,-0.00088018,-0.00563608,-0.00174256,-0.00018332,0.00310501,-0.008014
 18,-0.00317958,0.00477310,-0.01001329,-0.00707017,0.09629813,0.0850566
 1,-0.23095193,-0.09683148,0.00012041,0.00029765,0.00197792,-0.00215568
 ,0.00041462,0.00038080,0.00069156,0.00010746,0.00060668,-0.00031852,0.
 00036008,-0.00003111,0.00002881,0.00000754,-0.00019415,0.00004700,0.00
 000808,0.00003355,0.00006824,0.00002662,0.00001150,-0.00006316,-0.0000
 8994,-0.00005445,0.00033303,0.00035855,-0.00057537,-0.00098154,0.00065
 274,0.00066351,0.00994915,-0.01901574,-0.01209424,-0.09276148,0.247217
 29,0.04811551,-0.09725739,-0.09672122,-0.00354965,0.00436023,0.0004124
 8,-0.00014082,-0.00009574,0.00042527,0.00015999,-0.00001971,-0.0000905
 1,0.00035905,0.00050807,0.00002551,-0.00033171,0.00002520,0.00004863,0
 .00004044,-0.00004027,-0.00000937,0.00006121,0.00005250,-0.00000628,-0
 .00103468,-0.00008114,-0.00001123,-0.00032865,-0.00013261,0.00064203,0
 .01236084,-0.02635088,-0.01280341,-0.00713540,0.01228772,0.00680695,-0
 .04890456,0.10664379,0.10134366,0.00130329,-0.00103527,-0.00001526,0.0
 1022289,-0.01389583,0.00051031,-0.12843405,0.12230051,-0.00437127,-0.0
 1154979,0.02837084,-0.00101713,-0.00551716,-0.00087158,-0.00068227,0.0
 0110321,0.00136444,-0.00015701,-0.00087872,0.00051967,0.00021856,-0.00
 024801,-0.00052529,0.00015254,-0.00077165,-0.00083187,0.00000193,-0.00
 107027,-0.00343343,-0.00034997,0.00005163,-0.00001730,-0.00011187,-0.0
 0006191,0.00014860,-0.00003909,-0.00006840,0.00012292,0.00034904,0.134
 43993,0.00157818,0.00093505,-0.00039995,0.01557141,-0.01926027,0.00078
 242,0.12180074,-0.27172572,0.00664153,-0.00210099,0.00413057,-0.000062
 30,-0.00045794,0.00193367,-0.00000833,-0.00047471,0.00018589,-0.000028
 79,-0.00002475,0.00000994,0.00001773,0.00012486,0.00002282,-0.00000025
 ,-0.00116177,-0.00000726,-0.00005244,-0.00363796,-0.00324437,-0.000175
 07,-0.00029498,-0.00013302,0.00003045,-0.00002661,0.00039614,0.0001317
 6,-0.00102711,0.00022278,0.00023472,-0.13112933,0.28698212,-0.00025002
 ,0.00083239,-0.00351303,0.00085021,-0.00082816,0.00430495,-0.00440040,
 0.00663004,-0.03858726,-0.00091067,0.00162047,0.00321417,-0.00031515,-
 0.00040491,0.00749206,-0.00008905,-0.00002286,0.00067067,-0.00020502,0
 .00008892,-0.00018840,0.00002706,-0.00002963,-0.00008545,0.00025186,0.
 00000072,-0.00074670,-0.00050604,0.00011239,0.00653507,-0.00064510,-0.
 00028924,-0.00030712,0.00026977,0.00004303,-0.00001775,0.00034743,-0.0
 0050083,0.00008712,0.00538805,-0.00713788,0.02637568,-0.00010727,-0.00
 121878,0.00013867,-0.00512416,0.00087849,-0.00055620,-0.00906688,-0.02
 679483,-0.00024670,-0.13347265,-0.12721483,-0.00208327,0.01207419,0.01
 233260,0.00034255,0.00120479,0.00359919,-0.00065211,0.00000584,-0.0008
 2014,0.00008268,-0.00157948,-0.00141403,0.00021173,-0.00148417,0.00372
 682,-0.00022738,-0.00099867,0.00084341,-0.00002123,-0.00008745,-0.0000
 0435,-0.00003708,-0.00038332,-0.00002797,-0.00006116,0.00001844,0.0000
 2842,0.00002490,0.00109046,0.00034984,0.00013041,0.13747518,0.00012961
 ,0.00015081,-0.00001666,0.00108695,0.00138732,0.00033081,0.00236642,0.
 00573624,0.00023855,-0.12571141,-0.27239801,-0.00135287,-0.01370133,-0
 .01883004,-0.00016232,-0.00212174,-0.00351347,0.00047669,0.00028409,0.
 00071562,0.00011897,-0.00115525,0.00207882,-0.00027211,0.00389424,-0.0
 0295177,0.00032899,0.00067028,0.00041228,0.00000139,-0.00001857,-0.000
 01186,0.00001154,0.00004507,0.00001057,-0.00000831,-0.00001277,-0.0000
 1539,-0.00000982,-0.00029136,0.00057126,-0.00018351,0.13513492,0.28745
 164,-0.00011337,0.00002782,-0.00029226,-0.00060724,0.00012346,0.007931
 99,-0.00067595,-0.00162802,0.00452689,-0.00159063,-0.00009075,-0.03999
 653,0.00050135,0.00074198,0.00376337,-0.00062790,-0.00010534,-0.003064
 97,0.00059188,-0.00017555,0.00023468,0.00049912,0.00040464,-0.00065060
 ,-0.00022954,0.00001281,0.00615204,-0.00003740,0.00012409,-0.00082234,
 -0.00012099,-0.00006235,0.00002677,-0.00000970,-0.00001306,-0.00008645
 ,0.00003544,-0.00002568,-0.00002680,0.00020899,0.00000190,-0.00424085,
 0.00277287,0.00054407,0.02731116,-0.00018328,-0.00000279,-0.00047852,0
 .00034508,0.00000255,-0.00006347,-0.00098422,-0.00025282,0.00151954,-0
 .00023021,-0.00197155,-0.00071177,-0.00430933,0.00001455,-0.02105734,-
 0.05929517,0.00000844,-0.03841669,0.01024910,0.00596606,0.01366239,0.0
 1024439,-0.00597737,0.01367021,-0.00022456,0.00196723,-0.00070914,-0.0
 0098091,0.00025580,0.00151715,-0.00019356,0.00000030,0.00002136,-0.000
 07117,0.00004513,0.00005411,-0.00007065,-0.00004385,0.00005412,-0.0002
 2190,0.00004398,0.00005991,-0.00025223,0.00031889,-0.00068346,0.046651
 68,0.00000013,0.00000852,0.00000012,-0.00000013,0.00036909,-0.00000034
 ,-0.00034539,0.00028471,-0.00002159,-0.00107615,-0.00060214,-0.0005141
 5,0.00000205,0.00800014,0.00000476,0.00000939,-0.04206311,0.00005352,0
 .00264577,-0.00614927,-0.02730462,-0.00264880,-0.00616467,0.02729621,0
 .00107655,-0.00060074,0.00051573,0.00034646,0.00028398,0.00001960,0.00
 000007,-0.00001065,0.,-0.00000382,-0.00000618,0.00000002,0.00000387,-0
 .00000615,0.00000003,-0.00010060,-0.00002054,0.00006754,-0.00014424,0.
 00000372,0.00010217,-0.00000983,0.04669052,0.00001228,0.00000039,0.000
 02714,0.00013302,-0.00000156,-0.00004997,-0.00007187,0.00056421,-0.000
 08790,-0.00139991,0.00001441,-0.00011379,0.00238673,0.00000260,0.00249
 934,-0.03115339,0.00005238,-0.23605434,-0.00035090,-0.00595620,-0.0044
 6796,-0.00035084,0.00595351,-0.00444962,-0.00139797,-0.00001501,-0.000
 11389,-0.00007483,-0.00056314,-0.00008607,0.00002909,-0.00000004,0.000
 00212,0.00001547,-0.00001725,-0.00001244,0.00001538,0.00001704,-0.0000
 1247,-0.00011339,-0.00001989,0.00000494,0.00012581,0.00001771,-0.00020
 923,0.03218432,-0.00005088,0.24332963,-0.00010656,0.00122126,0.0001369
 0,-0.00512575,-0.00087787,-0.00055430,-0.00099917,-0.00084261,-0.00002
 001,-0.00148716,-0.00372716,-0.00022151,0.01207471,-0.01234899,0.00035
 974,0.00120189,-0.00359606,-0.00064902,-0.00157476,0.00141299,0.000211
 10,0.00000687,0.00082023,0.00008232,-0.13336026,0.12714015,-0.00224836
 ,-0.00906051,0.02680577,-0.00028361,-0.00008588,0.00000390,-0.00003727
 ,0.00001837,-0.00002838,0.00002518,-0.00038449,0.00002771,-0.00006121,
 0.00001391,0.00008317,0.00003740,0.00067352,-0.00082894,0.00001913,-0.
 00025180,0.00014398,0.00012436,0.13735647,-0.00012943,0.00015039,0.000
 01580,-0.00108421,0.00138744,-0.00032219,-0.00066980,0.00041301,-0.000
 00308,-0.00389574,-0.00294913,-0.00031694,0.01368997,-0.01882755,0.000
 19264,0.00211835,-0.00351248,-0.00047939,0.00115416,0.00207678,0.00026
 849,-0.00028300,0.00071580,-0.00011872,0.12564455,-0.27250057,0.001657
 77,-0.00236017,0.00572471,-0.00023990,0.00001867,-0.00001185,-0.000011
 43,0.00001287,-0.00001529,0.00000985,-0.00004504,0.00001072,0.00000817
 ,0.00008917,-0.00000223,0.00003662,0.00082855,-0.00079555,0.00002710,-
 0.00032075,0.00000337,-0.00001821,-0.13505935,0.28756048,-0.00011337,-
 0.00002858,-0.00029106,-0.00060594,-0.00011500,0.00793809,-0.00003517,
 -0.00012518,-0.00082212,-0.00022467,0.00000118,0.00615149,0.00048138,-
 0.00071084,0.00375956,-0.00063133,0.00010926,-0.00305698,0.00049760,-0
 .00041193,-0.00065029,0.00059020,0.00017256,0.00023323,-0.00174952,0.0
 0039080,-0.03999539,-0.00067438,0.00162745,0.00452402,-0.00012115,0.00
 006198,0.00002624,0.00003595,0.00002577,-0.00002652,-0.00000988,0.0000
 1329,-0.00008823,0.00006730,0.00000770,-0.00106561,0.00001785,-0.00002
 508,0.00050885,-0.00068204,-0.00010063,-0.00021058,0.00294876,-0.00088
 380,0.02730872,0.00129888,0.00102617,-0.00001738,0.01023466,0.01388810
 ,0.00049082,-0.00106859,0.00343181,-0.00035488,-0.00077081,0.00083226,
 0.00000064,-0.00551661,0.00087439,-0.00068276,0.00110278,-0.00136512,-
 0.00015465,-0.00024801,0.00052541,0.00015245,-0.00087928,-0.00051944,0
 .00021794,-0.01156118,-0.02836769,-0.00097627,-0.12854150,-0.12235862,
 -0.00419502,0.00005359,0.00001630,-0.00011407,-0.00006543,-0.00012108,
 0.00035135,-0.00006178,-0.00014962,-0.00003842,0.00059655,0.00078397,-
 0.00004064,0.00001385,-0.00008912,0.00006739,-0.00022125,0.00010069,-0
 .00011336,0.00109061,0.00029122,0.00020842,0.13454351,-0.00157343,0.00
 093936,0.00039398,-0.01558543,-0.01925704,-0.00074866,0.00363674,-0.00
 324639,0.00018965,0.00116205,-0.00000765,0.00005133,0.00046010,0.00193
 314,0.00001665,0.00047421,0.00018623,0.00002946,-0.00012468,0.00002275
 ,0.00000015,0.00002488,0.00001008,-0.00001803,0.00210672,0.00413860,0.
 00006145,-0.12186837,-0.27163501,-0.00629919,0.00029708,-0.00013634,-0
 .00002809,0.00102406,0.00021839,-0.00023702,0.00002682,0.00039501,-0.0
 0013288,-0.00078429,-0.00099683,-0.00003511,-0.00008308,-0.00000220,-0
 .00000928,-0.00004397,-0.00002061,0.00001992,-0.00034979,0.00057195,-0
 .00000895,0.13120037,0.28688656,-0.00024926,-0.00083909,-0.00349362,0.
 00087374,0.00086415,0.00430164,-0.00051261,-0.00009843,0.00653538,0.00
 025052,-0.00000284,-0.00074660,-0.00031486,0.00041325,0.00749550,-0.00
 009001,0.00002404,0.00066999,0.00002734,0.00002954,-0.00008545,-0.0002
 0417,-0.00008929,-0.00018897,-0.00091506,-0.00162153,0.00321822,-0.004
 22375,-0.00628777,-0.03856837,-0.00064444,0.00028250,-0.00031200,0.000
 34945,0.00050326,0.00008194,0.00026674,-0.00004076,-0.00002211,-0.0000
 3945,0.00003670,0.00006751,0.00003764,-0.00003805,-0.00106571,0.000059
 34,-0.00006750,0.00000508,0.00013041,0.00017723,-0.00424345,0.00519843
 ,0.00675460,0.02635102\\0.00000475,0.00000001,0.00000711,-0.00000735,-
 0.00000351,-0.00000479,0.00000474,0.00000122,-0.00000012,-0.00001247,-
 0.00000031,0.00000286,0.00001185,-0.00000542,0.00000401,-0.00001628,0.
 00000191,-0.00004197,0.00000720,-0.00000214,0.00000115,0.00000752,-0.0
 0000032,0.00000026,-0.00001031,0.00000129,-0.00000311,0.00000025,0.000
 00347,-0.00000034,0.00000047,0.00000031,-0.00000229,-0.00000059,-0.000
 00160,-0.00000146,-0.00000073,0.00000133,-0.00000102,0.00000103,0.0000
 0213,0.00000057,-0.00000078,0.00000516,0.00000071,0.00000860,0.0000021
 1,0.00003611,0.00000081,-0.00000339,0.00000247,0.00000129,-0.00000226,
 -0.00000017\\\@
 The archive entry for this job was punched.


 LET US PLACE AT THE END OF EVERY CHAPTER.....THE
 TWO LETTERS USED BY THE ROMAN JUDGES WHEN THEY DID
 NOT UNDERSTAND A PLEADING.
 N. L. -NON LIQUET- IT IS NOT CLEAR.
                                              -- VOLTAIRE
 Job cpu time:       0 days  1 hours 32 minutes 15.9 seconds.
 Elapsed time:       0 days  0 hours 11 minutes 39.1 seconds.
 File lengths (MBytes):  RWF=    266 Int=      0 D2E=      0 Chk=     12 Scr=      2
 Normal termination of Gaussian 16 at Mon Jun 20 19:28:02 2022.
