 Entering Gaussian System, Link 0=/opt/apps/Gaussian/G16C/g16/g16
 Input=/home/svss/projects/Project-Philicity/GS/hydrocarbon/set-1/GS/mol_35_hc/mol_35_hc.com
 Output=/home/svss/projects/Project-Philicity/GS/hydrocarbon/set-1/GS/mol_35_hc/mol_35_hc.log
 Initial command:
 /opt/apps/Gaussian/G16C/g16/l1.exe "/home/svss/projects/Project-Philicity/GS/hydrocarbon/set-1/Gau-296651.inp" -scrdir="/home/svss/projects/Project-Philicity/GS/hydrocarbon/set-1/"
 Entering Link 1 = /opt/apps/Gaussian/G16C/g16/l1.exe PID=    296652.
  
 Copyright (c) 1988-2019, Gaussian, Inc.  All Rights Reserved.
  
 This is part of the Gaussian(R) 16 program.  It is based on
 the Gaussian(R) 09 system (copyright 2009, Gaussian, Inc.),
 the Gaussian(R) 03 system (copyright 2003, Gaussian, Inc.),
 the Gaussian(R) 98 system (copyright 1998, Gaussian, Inc.),
 the Gaussian(R) 94 system (copyright 1995, Gaussian, Inc.),
 the Gaussian 92(TM) system (copyright 1992, Gaussian, Inc.),
 the Gaussian 90(TM) system (copyright 1990, Gaussian, Inc.),
 the Gaussian 88(TM) system (copyright 1988, Gaussian, Inc.),
 the Gaussian 86(TM) system (copyright 1986, Carnegie Mellon
 University), and the Gaussian 82(TM) system (copyright 1983,
 Carnegie Mellon University). Gaussian is a federally registered
 trademark of Gaussian, Inc.
  
 This software contains proprietary and confidential information,
 including trade secrets, belonging to Gaussian, Inc.
  
 This software is provided under written license and may be
 used, copied, transmitted, or stored only in accord with that
 written license.
  
 The following legend is applicable only to US Government
 contracts under FAR:
  
                    RESTRICTED RIGHTS LEGEND
  
 Use, reproduction and disclosure by the US Government is
 subject to restrictions as set forth in subparagraphs (a)
 and (c) of the Commercial Computer Software - Restricted
 Rights clause in FAR 52.227-19.
  
 Gaussian, Inc.
 340 Quinnipiac St., Bldg. 40, Wallingford CT 06492
  
  
 ---------------------------------------------------------------
 Warning -- This program may not be used in any manner that
 competes with the business of Gaussian, Inc. or will provide
 assistance to any competitor of Gaussian, Inc.  The licensee
 of this program is prohibited from giving any competitor of
 Gaussian, Inc. access to this program.  By using this program,
 the user acknowledges that Gaussian, Inc. is engaged in the
 business of creating and licensing software in the field of
 computational chemistry and represents and warrants to the
 licensee that it is not a competitor of Gaussian, Inc. and that
 it will not use this program in any manner prohibited above.
 ---------------------------------------------------------------
  

 Cite this work as:
 Gaussian 16, Revision C.01,
 M. J. Frisch, G. W. Trucks, H. B. Schlegel, G. E. Scuseria, 
 M. A. Robb, J. R. Cheeseman, G. Scalmani, V. Barone, 
 G. A. Petersson, H. Nakatsuji, X. Li, M. Caricato, A. V. Marenich, 
 J. Bloino, B. G. Janesko, R. Gomperts, B. Mennucci, H. P. Hratchian, 
 J. V. Ortiz, A. F. Izmaylov, J. L. Sonnenberg, D. Williams-Young, 
 F. Ding, F. Lipparini, F. Egidi, J. Goings, B. Peng, A. Petrone, 
 T. Henderson, D. Ranasinghe, V. G. Zakrzewski, J. Gao, N. Rega, 
 G. Zheng, W. Liang, M. Hada, M. Ehara, K. Toyota, R. Fukuda, 
 J. Hasegawa, M. Ishida, T. Nakajima, Y. Honda, O. Kitao, H. Nakai, 
 T. Vreven, K. Throssell, J. A. Montgomery, Jr., J. E. Peralta, 
 F. Ogliaro, M. J. Bearpark, J. J. Heyd, E. N. Brothers, K. N. Kudin, 
 V. N. Staroverov, T. A. Keith, R. Kobayashi, J. Normand, 
 K. Raghavachari, A. P. Rendell, J. C. Burant, S. S. Iyengar, 
 J. Tomasi, M. Cossi, J. M. Millam, M. Klene, C. Adamo, R. Cammi, 
 J. W. Ochterski, R. L. Martin, K. Morokuma, O. Farkas, 
 J. B. Foresman, and D. J. Fox, Gaussian, Inc., Wallingford CT, 2019.
 
 ******************************************
 Gaussian 16:  AS64L-G16RevC.01  3-Jul-2019
                20-Jun-2022 
 ******************************************
 %nproc=8
 Will use up to    8 processors via shared memory.
 %mem=96GB
 %chk=/home/svss/projects/Project-Philicity/GS/hydrocarbon/set-1/GS/mol_35_hc/mol
 _35_hc.chk
 -------------------------
 # opt freq M062X/def2tzvp
 -------------------------
 1/18=20,19=15,26=3,38=1/1,3;
 2/9=110,12=2,17=6,18=5,40=1/2;
 3/5=44,7=101,11=2,25=1,30=1,71=1,74=-55/1,2,3;
 4//1;
 5/5=2,38=5/2;
 6/7=2,8=2,9=2,10=2,28=1/1;
 7//1,2,3,16;
 1/18=20,19=15,26=3/3(2);
 2/9=110/2;
 99//99;
 2/9=110/2;
 3/5=44,7=101,11=2,25=1,30=1,71=1,74=-55/1,2,3;
 4/5=5,16=3,69=1/1;
 5/5=2,38=5/2;
 7//1,2,3,16;
 1/18=20,19=15,26=3/3(-5);
 2/9=110/2;
 6/7=2,8=2,9=2,10=2,19=2,28=1/1;
 99/9=1/99;
 ----------------------------------------------------------------------
 converted from /home/svss/projects/Project-Philicity/GS/hydrocarbon/se
 t-1/GS/mol_35_hc/mol_35_hc_cregen_best.xyz
 ----------------------------------------------------------------------
 Symbolic Z-matrix:
 Charge =  0 Multiplicity = 1
 F                     0.04697   0.        0. 
 H                    -0.88533   0.        0. 
 

 GradGradGradGradGradGradGradGradGradGradGradGradGradGradGradGradGradGrad
 Berny optimization.
 Initialization pass.
                           ----------------------------
                           !    Initial Parameters    !
                           ! (Angstroms and Degrees)  !
 --------------------------                            --------------------------
 ! Name  Definition              Value          Derivative Info.                !
 --------------------------------------------------------------------------------
 ! R1    R(1,2)                  0.9323         estimate D2E/DX2                !
 --------------------------------------------------------------------------------
 Trust Radius=3.00D-01 FncErr=1.00D-07 GrdErr=1.00D-06 EigMax=2.50D+02 EigMin=1.00D-04
 Number of steps in this run=     20 maximum allowed number of steps=    100.
 GradGradGradGradGradGradGradGradGradGradGradGradGradGradGradGradGradGrad

                          Input orientation:                          
 ---------------------------------------------------------------------
 Center     Atomic      Atomic             Coordinates (Angstroms)
 Number     Number       Type             X           Y           Z
 ---------------------------------------------------------------------
      1          9           0        0.046970    0.000000    0.000000
      2          1           0       -0.885330    0.000000    0.000000
 ---------------------------------------------------------------------
 Stoichiometry    FH
 Framework group  C*V[C*(HF)]
 Deg. of freedom     1
 Full point group                 C*V     NOp   4
 Largest Abelian subgroup         C2V     NOp   4
 Largest concise Abelian subgroup C1      NOp   1
                         Standard orientation:                         
 ---------------------------------------------------------------------
 Center     Atomic      Atomic             Coordinates (Angstroms)
 Number     Number       Type             X           Y           Z
 ---------------------------------------------------------------------
      1          9           0        0.000000    0.000000    0.093230
      2          1           0        0.000000    0.000000   -0.839070
 ---------------------------------------------------------------------
 Rotational constants (GHZ):           0.0000000         607.5315084         607.5315084
 Standard basis: def2TZVP (5D, 7F)
 There are    21 symmetry adapted cartesian basis functions of A1  symmetry.
 There are     3 symmetry adapted cartesian basis functions of A2  symmetry.
 There are     9 symmetry adapted cartesian basis functions of B1  symmetry.
 There are     9 symmetry adapted cartesian basis functions of B2  symmetry.
 There are    18 symmetry adapted basis functions of A1  symmetry.
 There are     3 symmetry adapted basis functions of A2  symmetry.
 There are     8 symmetry adapted basis functions of B1  symmetry.
 There are     8 symmetry adapted basis functions of B2  symmetry.
    37 basis functions,    59 primitive gaussians,    42 cartesian basis functions
     5 alpha electrons        5 beta electrons
       nuclear repulsion energy         5.1084360166 Hartrees.
 NAtoms=    2 NActive=    2 NUniq=    2 SFac= 1.00D+00 NAtFMM=   60 NAOKFM=F Big=F
 Integral buffers will be    131072 words long.
 Raffenetti 2 integral format.
 Two-electron integral symmetry is turned on.
 One-electron integrals computed using PRISM.
   4 Symmetry operations used in ECPInt.
 ECPInt:  NShTT=     120 NPrTT=     376 LenC2=     121 LenP2D=     369.
 LDataN:  DoStor=T MaxTD1= 6 Len=  172
 NBasis=    37 RedAO= T EigKep=  1.61D-02  NBF=    18     3     8     8
 NBsUse=    37 1.00D-06 EigRej= -1.00D+00 NBFU=    18     3     8     8
 ExpMin= 1.03D-01 ExpMax= 3.55D+04 ExpMxC= 1.21D+03 IAcc=3 IRadAn=         5 AccDes= 0.00D+00
 Harris functional with IExCor= 1009 and IRadAn=       5 diagonalized for initial guess.
 HarFok:  IExCor= 1009 AccDes= 0.00D+00 IRadAn=         5 IDoV= 1 UseB2=F ITyADJ=14
 ICtDFT=  3500011 ScaDFX=  1.000000  1.000000  1.000000  1.000000
 FoFCou: FMM=F IPFlag=           0 FMFlag=      100000 FMFlg1=           0
         NFxFlg=           0 DoJE=T BraDBF=F KetDBF=T FulRan=T
         wScrn=  0.000000 ICntrl=       500 IOpCl=  0 I1Cent=   200000004 NGrid=           0
         NMat0=    1 NMatS0=      1 NMatT0=    0 NMatD0=    1 NMtDS0=    0 NMtDT0=    0
 Petite list used in FoFCou.
 Initial guess orbital symmetries:
       Occupied  (SG) (SG) (SG) (PI) (PI)
       Virtual   (SG) (SG) (SG) (PI) (PI) (SG) (PI) (PI) (SG) (DLTA)
                 (DLTA) (SG) (PI) (PI) (SG) (PI) (PI) (SG) (SG)
                 (DLTA) (DLTA) (PHI) (PHI) (PI) (PI) (SG) (DLTA)
                 (DLTA) (PI) (PI) (SG) (SG)
 The electronic state of the initial guess is 1-SG.
 Keep R1 ints in memory in symmetry-blocked form, NReq=7171825.
 Requested convergence on RMS density matrix=1.00D-08 within 128 cycles.
 Requested convergence on MAX density matrix=1.00D-06.
 Requested convergence on             energy=1.00D-06.
 No special actions if energy rises.
 Integral accuracy reduced to 1.0D-05 until final iterations.
 Initial convergence to 1.0D-05 achieved.  Increase integral accuracy.
 SCF Done:  E(RM062X) =  -100.451003830     A.U. after   10 cycles
            NFock= 10  Conv=0.47D-08     -V/T= 2.0035

 **********************************************************************

            Population analysis using the SCF Density.

 **********************************************************************

 Orbital symmetries:
       Occupied  (SG) (SG) (SG) (PI) (PI)
       Virtual   (SG) (SG) (PI) (PI) (SG) (SG) (PI) (PI) (SG) (DLTA)
                 (DLTA) (SG) (PI) (PI) (SG) (PI) (PI) (SG) (SG)
                 (DLTA) (DLTA) (PHI) (PHI) (PI) (PI) (SG) (DLTA)
                 (DLTA) (PI) (PI) (SG) (SG)
 The electronic state is 1-SG.
 Alpha  occ. eigenvalues --  -25.23320  -1.33737  -0.63440  -0.51220  -0.51220
 Alpha virt. eigenvalues --    0.04883   0.43060   0.58309   0.58309   0.58941
 Alpha virt. eigenvalues --    0.76017   1.41843   1.41843   1.86214   2.02396
 Alpha virt. eigenvalues --    2.02396   2.32024   2.48162   2.48162   2.91825
 Alpha virt. eigenvalues --    3.24539   3.24539   3.53135   4.54821   6.89133
 Alpha virt. eigenvalues --    6.89133   6.93221   6.93221   7.05092   7.05092
 Alpha virt. eigenvalues --    7.43016   8.27914   8.27914   8.44145   8.44145
 Alpha virt. eigenvalues --    9.04008  56.81950
          Condensed to atoms (all electrons):
               1          2
     1  F    9.148511   0.261474
     2  H    0.261474   0.328542
 Mulliken charges:
               1
     1  F   -0.409985
     2  H    0.409985
 Sum of Mulliken charges =   0.00000
 Mulliken charges with hydrogens summed into heavy atoms:
               1
     1  F    0.000000
 Electronic spatial extent (au):  <R**2>=             13.9939
 Charge=              0.0000 electrons
 Dipole moment (field-independent basis, Debye):
    X=              0.0000    Y=              0.0000    Z=             -1.9745  Tot=              1.9745
 Quadrupole moment (field-independent basis, Debye-Ang):
   XX=             -5.7323   YY=             -5.7323   ZZ=             -3.6003
   XY=              0.0000   XZ=              0.0000   YZ=              0.0000
 Traceless Quadrupole moment (field-independent basis, Debye-Ang):
   XX=             -0.7107   YY=             -0.7107   ZZ=              1.4213
   XY=              0.0000   XZ=              0.0000   YZ=              0.0000
 Octapole moment (field-independent basis, Debye-Ang**2):
  XXX=              0.0000  YYY=              0.0000  ZZZ=             -1.9872  XYY=              0.0000
  XXY=              0.0000  XXZ=             -0.1939  XZZ=              0.0000  YZZ=              0.0000
  YYZ=             -0.1939  XYZ=              0.0000
 Hexadecapole moment (field-independent basis, Debye-Ang**3):
 XXXX=             -3.7168 YYYY=             -3.7168 ZZZZ=             -3.3253 XXXY=              0.0000
 XXXZ=              0.0000 YYYX=              0.0000 YYYZ=              0.0000 ZZZX=              0.0000
 ZZZY=              0.0000 XXYY=             -1.2389 XXZZ=             -1.4329 YYZZ=             -1.4329
 XXYZ=              0.0000 YYXZ=              0.0000 ZZXY=              0.0000
 N-N= 5.108436016604D+00 E-N=-2.504810668459D+02  KE= 1.001014900291D+02
 Symmetry A1   KE= 8.747924639402D+01
 Symmetry A2   KE= 4.238817577860D-52
 Symmetry B1   KE= 6.311121817517D+00
 Symmetry B2   KE= 6.311121817517D+00
   4 Symmetry operations used in ECPInt.
 ECPInt:  NShTT=     120 NPrTT=     376 LenC2=     121 LenP2D=     369.
 LDataN:  DoStor=T MaxTD1= 7 Len=  274
 Calling FoFJK, ICntrl=      2127 FMM=F ISym2X=1 I1Cent= 0 IOpClX= 0 NMat=1 NMatS=1 NMatT=0.
 ***** Axes restored to original set *****
 -------------------------------------------------------------------
 Center     Atomic                   Forces (Hartrees/Bohr)
 Number     Number              X              Y              Z
 -------------------------------------------------------------------
      1        9          -0.013748272   -0.000000000   -0.000000000
      2        1           0.013748272   -0.000000000   -0.000000000
 -------------------------------------------------------------------
 Cartesian Forces:  Max     0.013748272 RMS     0.007937568

 GradGradGradGradGradGradGradGradGradGradGradGradGradGradGradGradGradGrad
 Berny optimization.
 FormGI is forming the generalized inverse of G from B-inverse, IUseBI=4.
 Internal  Forces:  Max     0.013748272 RMS     0.013748272
 Search for a local minimum.
 Step number   1 out of a maximum of   20
 All quantities printed in internal units (Hartrees-Bohrs-Radians)
 Mixed Optimization -- RFO/linear search
 Second derivative matrix not updated -- first step.
 The second derivative matrix:
                          R1
           R1           0.61885
 ITU=  0
     Eigenvalues ---    0.61885
 RFO step:  Lambda=-3.05279572D-04 EMin= 6.18848406D-01
 Linear search not attempted -- first point.
 Iteration  1 RMS(Cart)=  0.01570126 RMS(Int)=  0.00000000
 Iteration  2 RMS(Cart)=  0.00000000 RMS(Int)=  0.00000000
 ClnCor:  largest displacement from symmetrization is 2.22D-16 for atom     2.
 Variable       Old X    -DE/DX   Delta X   Delta X   Delta X     New X
                                 (Linear)    (Quad)   (Total)
    R1        1.76179  -0.01375   0.00000  -0.02220  -0.02220   1.73959
         Item               Value     Threshold  Converged?
 Maximum Force            0.013748     0.000450     NO 
 RMS     Force            0.013748     0.000300     NO 
 Maximum Displacement     0.011102     0.001800     NO 
 RMS     Displacement     0.015701     0.001200     NO 
 Predicted change in Energy=-1.527150D-04
 GradGradGradGradGradGradGradGradGradGradGradGradGradGradGradGradGradGrad

                          Input orientation:                          
 ---------------------------------------------------------------------
 Center     Atomic      Atomic             Coordinates (Angstroms)
 Number     Number       Type             X           Y           Z
 ---------------------------------------------------------------------
      1          9           0        0.041095    0.000000    0.000000
      2          1           0       -0.879455    0.000000    0.000000
 ---------------------------------------------------------------------
 Stoichiometry    FH
 Framework group  C*V[C*(HF)]
 Deg. of freedom     1
 Full point group                 C*V     NOp   4
 Largest Abelian subgroup         C2V     NOp   4
 Largest concise Abelian subgroup C1      NOp   1
                         Standard orientation:                         
 ---------------------------------------------------------------------
 Center     Atomic      Atomic             Coordinates (Angstroms)
 Number     Number       Type             X           Y           Z
 ---------------------------------------------------------------------
      1          9           0        0.000000    0.000000    0.092055
      2          1           0        0.000000    0.000000   -0.828495
 ---------------------------------------------------------------------
 Rotational constants (GHZ):           0.0000000         623.1401578         623.1401578
 Standard basis: def2TZVP (5D, 7F)
 There are    21 symmetry adapted cartesian basis functions of A1  symmetry.
 There are     3 symmetry adapted cartesian basis functions of A2  symmetry.
 There are     9 symmetry adapted cartesian basis functions of B1  symmetry.
 There are     9 symmetry adapted cartesian basis functions of B2  symmetry.
 There are    18 symmetry adapted basis functions of A1  symmetry.
 There are     3 symmetry adapted basis functions of A2  symmetry.
 There are     8 symmetry adapted basis functions of B1  symmetry.
 There are     8 symmetry adapted basis functions of B2  symmetry.
    37 basis functions,    59 primitive gaussians,    42 cartesian basis functions
     5 alpha electrons        5 beta electrons
       nuclear repulsion energy         5.1736426104 Hartrees.
 NAtoms=    2 NActive=    2 NUniq=    2 SFac= 1.00D+00 NAtFMM=   60 NAOKFM=F Big=F
 Integral buffers will be    131072 words long.
 Raffenetti 2 integral format.
 Two-electron integral symmetry is turned on.
 One-electron integrals computed using PRISM.
   4 Symmetry operations used in ECPInt.
 ECPInt:  NShTT=     120 NPrTT=     376 LenC2=     121 LenP2D=     370.
 LDataN:  DoStor=T MaxTD1= 6 Len=  172
 NBasis=    37 RedAO= T EigKep=  1.53D-02  NBF=    18     3     8     8
 NBsUse=    37 1.00D-06 EigRej= -1.00D+00 NBFU=    18     3     8     8
 Initial guess from the checkpoint file:  "/home/svss/projects/Project-Philicity/GS/hydrocarbon/set-1/GS/mol_35_hc/mol_35_hc.chk"
 B after Tr=     0.000000    0.000000    0.000000
         Rot=    1.000000    0.000000    0.000000    0.000000 Ang=   0.00 deg.
 Initial guess orbital symmetries:
       Occupied  (SG) (SG) (SG) (PI) (PI)
       Virtual   (SG) (SG) (PI) (PI) (SG) (SG) (PI) (PI) (SG) (DLTA)
                 (DLTA) (SG) (PI) (PI) (SG) (PI) (PI) (SG) (SG)
                 (DLTA) (DLTA) (PHI) (PHI) (PI) (PI) (SG) (DLTA)
                 (DLTA) (PI) (PI) (SG) (SG)
 Keep R1 ints in memory in symmetry-blocked form, NReq=7171825.
 Requested convergence on RMS density matrix=1.00D-08 within 128 cycles.
 Requested convergence on MAX density matrix=1.00D-06.
 Requested convergence on             energy=1.00D-06.
 No special actions if energy rises.
 SCF Done:  E(RM062X) =  -100.451162229     A.U. after    7 cycles
            NFock=  7  Conv=0.91D-08     -V/T= 2.0033
   4 Symmetry operations used in ECPInt.
 ECPInt:  NShTT=     120 NPrTT=     376 LenC2=     121 LenP2D=     370.
 LDataN:  DoStor=T MaxTD1= 7 Len=  274
 Calling FoFJK, ICntrl=      2127 FMM=F ISym2X=1 I1Cent= 0 IOpClX= 0 NMat=1 NMatS=1 NMatT=0.
 ***** Axes restored to original set *****
 -------------------------------------------------------------------
 Center     Atomic                   Forces (Hartrees/Bohr)
 Number     Number              X              Y              Z
 -------------------------------------------------------------------
      1        9          -0.000335495   -0.000000000   -0.000000000
      2        1           0.000335495   -0.000000000   -0.000000000
 -------------------------------------------------------------------
 Cartesian Forces:  Max     0.000335495 RMS     0.000193698

 GradGradGradGradGradGradGradGradGradGradGradGradGradGradGradGradGradGrad
 Berny optimization.
 Using GEDIIS/GDIIS optimizer.
 Internal  Forces:  Max     0.000335495 RMS     0.000335495
 Search for a local minimum.
 Step number   2 out of a maximum of   20
 All quantities printed in internal units (Hartrees-Bohrs-Radians)
 Mixed Optimization -- En-DIIS/RFO-DIIS
 Update second derivatives using D2CorX and points    1    2
 DE= -1.58D-04 DEPred=-1.53D-04 R= 1.04D+00
 TightC=F SS=  1.41D+00  RLast= 2.22D-02 DXNew= 5.0454D-01 6.6615D-02
 Trust test= 1.04D+00 RLast= 2.22D-02 DXMaxT set to 3.00D-01
 The second derivative matrix:
                          R1
           R1           0.60404
 ITU=  1  0
 Use linear search instead of GDIIS.
     Eigenvalues ---    0.60404
 RFO step:  Lambda= 0.00000000D+00 EMin= 6.04044682D-01
 Quartic linear search produced a step of  0.02400.
 Iteration  1 RMS(Cart)=  0.00037681 RMS(Int)=  0.00000000
 Iteration  2 RMS(Cart)=  0.00000000 RMS(Int)=  0.00000000
 ClnCor:  largest displacement from symmetrization is 0.00D+00 for atom     0.
 Variable       Old X    -DE/DX   Delta X   Delta X   Delta X     New X
                                 (Linear)    (Quad)   (Total)
    R1        1.73959  -0.00034  -0.00053   0.00000  -0.00053   1.73905
         Item               Value     Threshold  Converged?
 Maximum Force            0.000335     0.000450     YES
 RMS     Force            0.000335     0.000300     NO 
 Maximum Displacement     0.000266     0.001800     YES
 RMS     Displacement     0.000377     0.001200     YES
 Predicted change in Energy=-9.301590D-08
 GradGradGradGradGradGradGradGradGradGradGradGradGradGradGradGradGradGrad

                          Input orientation:                          
 ---------------------------------------------------------------------
 Center     Atomic      Atomic             Coordinates (Angstroms)
 Number     Number       Type             X           Y           Z
 ---------------------------------------------------------------------
      1          9           0        0.040954    0.000000    0.000000
      2          1           0       -0.879314    0.000000    0.000000
 ---------------------------------------------------------------------
 Stoichiometry    FH
 Framework group  C*V[C*(HF)]
 Deg. of freedom     1
 Full point group                 C*V     NOp   4
 Largest Abelian subgroup         C2V     NOp   4
 Largest concise Abelian subgroup C1      NOp   1
                         Standard orientation:                         
 ---------------------------------------------------------------------
 Center     Atomic      Atomic             Coordinates (Angstroms)
 Number     Number       Type             X           Y           Z
 ---------------------------------------------------------------------
      1          9           0        0.000000    0.000000    0.092027
      2          1           0        0.000000    0.000000   -0.828241
 ---------------------------------------------------------------------
 Rotational constants (GHZ):           0.0000000         623.5221097         623.5221097
 Standard basis: def2TZVP (5D, 7F)
 There are    21 symmetry adapted cartesian basis functions of A1  symmetry.
 There are     3 symmetry adapted cartesian basis functions of A2  symmetry.
 There are     9 symmetry adapted cartesian basis functions of B1  symmetry.
 There are     9 symmetry adapted cartesian basis functions of B2  symmetry.
 There are    18 symmetry adapted basis functions of A1  symmetry.
 There are     3 symmetry adapted basis functions of A2  symmetry.
 There are     8 symmetry adapted basis functions of B1  symmetry.
 There are     8 symmetry adapted basis functions of B2  symmetry.
    37 basis functions,    59 primitive gaussians,    42 cartesian basis functions
     5 alpha electrons        5 beta electrons
       nuclear repulsion energy         5.1752279519 Hartrees.
 NAtoms=    2 NActive=    2 NUniq=    2 SFac= 1.00D+00 NAtFMM=   60 NAOKFM=F Big=F
 Integral buffers will be    131072 words long.
 Raffenetti 2 integral format.
 Two-electron integral symmetry is turned on.
 One-electron integrals computed using PRISM.
   4 Symmetry operations used in ECPInt.
 ECPInt:  NShTT=     120 NPrTT=     376 LenC2=     121 LenP2D=     370.
 LDataN:  DoStor=T MaxTD1= 6 Len=  172
 NBasis=    37 RedAO= T EigKep=  1.53D-02  NBF=    18     3     8     8
 NBsUse=    37 1.00D-06 EigRej= -1.00D+00 NBFU=    18     3     8     8
 Initial guess from the checkpoint file:  "/home/svss/projects/Project-Philicity/GS/hydrocarbon/set-1/GS/mol_35_hc/mol_35_hc.chk"
 B after Tr=     0.000000    0.000000   -0.000000
         Rot=    1.000000    0.000000    0.000000    0.000000 Ang=   0.00 deg.
 Initial guess orbital symmetries:
       Occupied  (SG) (SG) (SG) (PI) (PI)
       Virtual   (SG) (SG) (PI) (PI) (SG) (SG) (PI) (PI) (SG) (DLTA)
                 (DLTA) (SG) (PI) (PI) (SG) (PI) (PI) (SG) (SG)
                 (DLTA) (DLTA) (PHI) (PHI) (PI) (PI) (SG) (DLTA)
                 (DLTA) (PI) (PI) (SG) (SG)
 Keep R1 ints in memory in symmetry-blocked form, NReq=7171825.
 Requested convergence on RMS density matrix=1.00D-08 within 128 cycles.
 Requested convergence on MAX density matrix=1.00D-06.
 Requested convergence on             energy=1.00D-06.
 No special actions if energy rises.
 SCF Done:  E(RM062X) =  -100.451162318     A.U. after    6 cycles
            NFock=  6  Conv=0.21D-08     -V/T= 2.0033
   4 Symmetry operations used in ECPInt.
 ECPInt:  NShTT=     120 NPrTT=     376 LenC2=     121 LenP2D=     370.
 LDataN:  DoStor=T MaxTD1= 7 Len=  274
 Calling FoFJK, ICntrl=      2127 FMM=F ISym2X=1 I1Cent= 0 IOpClX= 0 NMat=1 NMatS=1 NMatT=0.
 ***** Axes restored to original set *****
 -------------------------------------------------------------------
 Center     Atomic                   Forces (Hartrees/Bohr)
 Number     Number              X              Y              Z
 -------------------------------------------------------------------
      1        9           0.000000098   -0.000000000   -0.000000000
      2        1          -0.000000098   -0.000000000   -0.000000000
 -------------------------------------------------------------------
 Cartesian Forces:  Max     0.000000098 RMS     0.000000056

 GradGradGradGradGradGradGradGradGradGradGradGradGradGradGradGradGradGrad
 Berny optimization.
 Using GEDIIS/GDIIS optimizer.
 Internal  Forces:  Max     0.000000098 RMS     0.000000098
 Search for a local minimum.
 Step number   3 out of a maximum of   20
 All quantities printed in internal units (Hartrees-Bohrs-Radians)
 Mixed Optimization -- En-DIIS/RFO-DIIS
 Swapping is turned off.
 Update second derivatives using D2CorX and points    3
 DE= -8.94D-08 DEPred=-9.30D-08 R= 9.61D-01
 Trust test= 9.61D-01 RLast= 5.33D-04 DXMaxT set to 3.00D-01
 The second derivative matrix:
                          R1
           R1           0.60404
 ITU=  0  1
     Eigenvalues ---    0.60404
 En-DIIS/RFO-DIIS/Sim-DIIS IScMMF=       -3 using points:     3    2
 RFO step:  Lambda=-1.58206781D-14.
 DidBck=F Rises=F RFO-DIIS coefs:    0.99971    0.00029
 Iteration  1 RMS(Cart)=  0.00000011 RMS(Int)=  0.00000000
 ClnCor:  largest displacement from symmetrization is 0.00D+00 for atom     0.
 Variable       Old X    -DE/DX   Delta X   Delta X   Delta X     New X
                                 (Linear)    (Quad)   (Total)
    R1        1.73905   0.00000   0.00000   0.00000   0.00000   1.73905
         Item               Value     Threshold  Converged?
 Maximum Force            0.000000     0.000450     YES
 RMS     Force            0.000000     0.000300     YES
 Maximum Displacement     0.000000     0.001800     YES
 RMS     Displacement     0.000000     0.001200     YES
 Predicted change in Energy=-7.886579D-15
 Optimization completed.
    -- Stationary point found.
                           ----------------------------
                           !   Optimized Parameters   !
                           ! (Angstroms and Degrees)  !
 --------------------------                            --------------------------
 ! Name  Definition              Value          Derivative Info.                !
 --------------------------------------------------------------------------------
 ! R1    R(1,2)                  0.9203         -DE/DX =    0.0                 !
 --------------------------------------------------------------------------------
 GradGradGradGradGradGradGradGradGradGradGradGradGradGradGradGradGradGrad

                          Input orientation:                          
 ---------------------------------------------------------------------
 Center     Atomic      Atomic             Coordinates (Angstroms)
 Number     Number       Type             X           Y           Z
 ---------------------------------------------------------------------
      1          9           0        0.040954    0.000000    0.000000
      2          1           0       -0.879314    0.000000    0.000000
 ---------------------------------------------------------------------
 Stoichiometry    FH
 Framework group  C*V[C*(HF)]
 Deg. of freedom     1
 Full point group                 C*V     NOp   4
 Largest Abelian subgroup         C2V     NOp   4
 Largest concise Abelian subgroup C1      NOp   1
                         Standard orientation:                         
 ---------------------------------------------------------------------
 Center     Atomic      Atomic             Coordinates (Angstroms)
 Number     Number       Type             X           Y           Z
 ---------------------------------------------------------------------
      1          9           0        0.000000    0.000000    0.092027
      2          1           0        0.000000    0.000000   -0.828241
 ---------------------------------------------------------------------
 Rotational constants (GHZ):           0.0000000         623.5221097         623.5221097

 **********************************************************************

            Population analysis using the SCF Density.

 **********************************************************************

 Orbital symmetries:
       Occupied  (SG) (SG) (SG) (PI) (PI)
       Virtual   (SG) (SG) (PI) (PI) (SG) (SG) (PI) (PI) (SG) (DLTA)
                 (DLTA) (SG) (PI) (PI) (SG) (PI) (PI) (SG) (SG)
                 (DLTA) (DLTA) (PHI) (PHI) (PI) (PI) (SG) (DLTA)
                 (DLTA) (PI) (PI) (SG) (SG)
 The electronic state is 1-SG.
 Alpha  occ. eigenvalues --  -25.23292  -1.34124  -0.63787  -0.51333  -0.51333
 Alpha virt. eigenvalues --    0.05122   0.43816   0.58281   0.58281   0.58855
 Alpha virt. eigenvalues --    0.76150   1.42249   1.42249   1.85779   2.02282
 Alpha virt. eigenvalues --    2.02282   2.32581   2.49188   2.49188   2.93264
 Alpha virt. eigenvalues --    3.24660   3.24660   3.53457   4.58160   6.88955
 Alpha virt. eigenvalues --    6.88955   6.93105   6.93105   7.05665   7.05665
 Alpha virt. eigenvalues --    7.46568   8.27840   8.27840   8.44650   8.44650
 Alpha virt. eigenvalues --    9.05671  56.82909
          Condensed to atoms (all electrons):
               1          2
     1  F    9.144145   0.264174
     2  H    0.264174   0.327508
 Mulliken charges:
               1
     1  F   -0.408318
     2  H    0.408318
 Sum of Mulliken charges =  -0.00000
 Mulliken charges with hydrogens summed into heavy atoms:
               1
     1  F   -0.000000
 Electronic spatial extent (au):  <R**2>=             13.9292
 Charge=             -0.0000 electrons
 Dipole moment (field-independent basis, Debye):
    X=              0.0000    Y=              0.0000    Z=             -1.9539  Tot=              1.9539
 Quadrupole moment (field-independent basis, Debye-Ang):
   XX=             -5.7203   YY=             -5.7203   ZZ=             -3.6337
   XY=              0.0000   XZ=              0.0000   YZ=              0.0000
 Traceless Quadrupole moment (field-independent basis, Debye-Ang):
   XX=             -0.6955   YY=             -0.6955   ZZ=              1.3910
   XY=              0.0000   XZ=              0.0000   YZ=              0.0000
 Octapole moment (field-independent basis, Debye-Ang**2):
  XXX=              0.0000  YYY=              0.0000  ZZZ=             -1.9380  XYY=              0.0000
  XXY=              0.0000  XXZ=             -0.1975  XZZ=              0.0000  YZZ=              0.0000
  YYZ=             -0.1975  XYZ=              0.0000
 Hexadecapole moment (field-independent basis, Debye-Ang**3):
 XXXX=             -3.7026 YYYY=             -3.7026 ZZZZ=             -3.3221 XXXY=              0.0000
 XXXZ=              0.0000 YYYX=              0.0000 YYYZ=              0.0000 ZZZX=              0.0000
 ZZZY=              0.0000 XXYY=             -1.2342 XXZZ=             -1.4173 YYZZ=             -1.4173
 XXYZ=              0.0000 YYXZ=              0.0000 ZZXY=              0.0000
 N-N= 5.175227951900D+00 E-N=-2.506183487673D+02  KE= 1.001256337826D+02
 Symmetry A1   KE= 8.750347188349D+01
 Symmetry A2   KE= 1.470429676201D-51
 Symmetry B1   KE= 6.311080949553D+00
 Symmetry B2   KE= 6.311080949553D+00
 Unable to Open any file for archive entry.
 1\1\GINC-NODE12\FOpt\RM062X\def2TZVP\F1H1\SVSS\20-Jun-2022\0\\# opt fr
 eq M062X/def2tzvp\\converted from /home/svss/projects/Project-Philicit
 y/GS/hydrocarbon/set-1/GS/mol_35_hc/mol_35_hc_cregen_best.xyz\\0,1\F,0
 .0409538282,0.,0.\H,-0.8793138282,0.,0.\\Version=AS64L-G16RevC.01\Stat
 e=1-SG\HF=-100.4511623\RMSD=2.118e-09\RMSF=5.640e-08\Dipole=-0.7687318
 ,0.,0.\Quadrupole=1.0342108,-0.5171054,-0.5171054,0.,0.,0.\PG=C*V [C*(
 H1F1)]\\@
 The archive entry for this job was punched.


 IF AT FIRST YOU DON'T SUCCEED, TRY LOOKING IN 
 THE WASTEBASKET FOR THE DIRECTIONS.
 Job cpu time:       0 days  0 hours  0 minutes 15.3 seconds.
 Elapsed time:       0 days  0 hours  0 minutes  3.5 seconds.
 File lengths (MBytes):  RWF=     17 Int=      0 D2E=      0 Chk=      2 Scr=      2
 Normal termination of Gaussian 16 at Mon Jun 20 20:15:41 2022.
 Link1:  Proceeding to internal job step number  2.
 --------------------------------------------------------------------
 #N Geom=AllCheck Guess=TCheck SCRF=Check GenChk RM062X/def2TZVP Freq
 --------------------------------------------------------------------
 1/10=4,29=7,30=1,38=1,40=1/1,3;
 2/12=2,40=1/2;
 3/5=44,7=101,11=2,14=-4,25=1,30=1,70=2,71=2,74=-55,116=1,140=1/1,2,3;
 4/5=101/1;
 5/5=2,38=6,98=1/2;
 8/6=4,10=90,11=11/1;
 11/6=1,8=1,9=11,15=111,16=1/1,2,10;
 10/6=1/2;
 6/7=2,8=2,9=2,10=2,28=1/1;
 7/8=1,10=1,25=1/1,2,3,16;
 1/10=4,30=1/3;
 99//99;
 Structure from the checkpoint file:  "/home/svss/projects/Project-Philicity/GS/hydrocarbon/set-1/GS/mol_35_hc/mol_35_hc.chk"
 ----------------------------------------------------------------------
 converted from /home/svss/projects/Project-Philicity/GS/hydrocarbon/se
 t-1/GS/mol_35_hc/mol_35_hc_cregen_best.xyz
 ----------------------------------------------------------------------
 Charge =  0 Multiplicity = 1
 Redundant internal coordinates found in file.  (old form).
 F,0,0.0409538282,0.,0.
 H,0,-0.8793138282,0.,0.
 Recover connectivity data from disk.

 GradGradGradGradGradGradGradGradGradGradGradGradGradGradGradGradGradGrad
 Berny optimization.
 Initialization pass.
                           ----------------------------
                           !    Initial Parameters    !
                           ! (Angstroms and Degrees)  !
 --------------------------                            --------------------------
 ! Name  Definition              Value          Derivative Info.                !
 --------------------------------------------------------------------------------
 ! R1    R(1,2)                  0.9203         calculate D2E/DX2 analytically  !
 --------------------------------------------------------------------------------
 Trust Radius=3.00D-01 FncErr=1.00D-07 GrdErr=1.00D-07 EigMax=2.50D+02 EigMin=1.00D-04
 Number of steps in this run=      2 maximum allowed number of steps=      2.
 GradGradGradGradGradGradGradGradGradGradGradGradGradGradGradGradGradGrad

                          Input orientation:                          
 ---------------------------------------------------------------------
 Center     Atomic      Atomic             Coordinates (Angstroms)
 Number     Number       Type             X           Y           Z
 ---------------------------------------------------------------------
      1          9           0        0.040954    0.000000    0.000000
      2          1           0       -0.879314    0.000000    0.000000
 ---------------------------------------------------------------------
 Stoichiometry    FH
 Framework group  C*V[C*(HF)]
 Deg. of freedom     1
 Full point group                 C*V     NOp   4
 Largest Abelian subgroup         C2V     NOp   4
 Largest concise Abelian subgroup C1      NOp   1
                         Standard orientation:                         
 ---------------------------------------------------------------------
 Center     Atomic      Atomic             Coordinates (Angstroms)
 Number     Number       Type             X           Y           Z
 ---------------------------------------------------------------------
      1          9           0        0.000000    0.000000    0.092027
      2          1           0        0.000000    0.000000   -0.828241
 ---------------------------------------------------------------------
 Rotational constants (GHZ):           0.0000000         623.5221097         623.5221097
 Standard basis: def2TZVP (5D, 7F)
 There are    21 symmetry adapted cartesian basis functions of A1  symmetry.
 There are     3 symmetry adapted cartesian basis functions of A2  symmetry.
 There are     9 symmetry adapted cartesian basis functions of B1  symmetry.
 There are     9 symmetry adapted cartesian basis functions of B2  symmetry.
 There are    18 symmetry adapted basis functions of A1  symmetry.
 There are     3 symmetry adapted basis functions of A2  symmetry.
 There are     8 symmetry adapted basis functions of B1  symmetry.
 There are     8 symmetry adapted basis functions of B2  symmetry.
    37 basis functions,    59 primitive gaussians,    42 cartesian basis functions
     5 alpha electrons        5 beta electrons
       nuclear repulsion energy         5.1752279519 Hartrees.
 NAtoms=    2 NActive=    2 NUniq=    2 SFac= 1.00D+00 NAtFMM=   60 NAOKFM=F Big=F
 Integral buffers will be    131072 words long.
 Raffenetti 2 integral format.
 Two-electron integral symmetry is turned on.
 One-electron integrals computed using PRISM.
   4 Symmetry operations used in ECPInt.
 ECPInt:  NShTT=     120 NPrTT=     376 LenC2=     121 LenP2D=     370.
 LDataN:  DoStor=T MaxTD1= 6 Len=  172
 NBasis=    37 RedAO= T EigKep=  1.53D-02  NBF=    18     3     8     8
 NBsUse=    37 1.00D-06 EigRej= -1.00D+00 NBFU=    18     3     8     8
 Initial guess from the checkpoint file:  "/home/svss/projects/Project-Philicity/GS/hydrocarbon/set-1/GS/mol_35_hc/mol_35_hc.chk"
 B after Tr=     0.000000    0.000000    0.000000
         Rot=    1.000000    0.000000    0.000000    0.000000 Ang=   0.00 deg.
 Initial guess orbital symmetries:
       Occupied  (SG) (SG) (SG) (PI) (PI)
       Virtual   (SG) (SG) (PI) (PI) (SG) (SG) (PI) (PI) (SG) (DLTA)
                 (DLTA) (SG) (PI) (PI) (SG) (PI) (PI) (SG) (SG)
                 (DLTA) (DLTA) (PHI) (PHI) (PI) (PI) (SG) (DLTA)
                 (DLTA) (PI) (PI) (SG) (SG)
 Keep R1 ints in memory in symmetry-blocked form, NReq=7171825.
 Requested convergence on RMS density matrix=1.00D-08 within 128 cycles.
 Requested convergence on MAX density matrix=1.00D-06.
 Requested convergence on             energy=1.00D-06.
 No special actions if energy rises.
 SCF Done:  E(RM062X) =  -100.451162318     A.U. after    1 cycles
            NFock=  1  Conv=0.18D-09     -V/T= 2.0033
 DoSCS=F DFT=T ScalE2(SS,OS)=  1.000000  1.000000
 Range of M.O.s used for correlation:     1    37
 NBasis=    37 NAE=     5 NBE=     5 NFC=     0 NFV=     0
 NROrb=     37 NOA=     5 NOB=     5 NVA=    32 NVB=    32
   4 Symmetry operations used in ECPInt.
 ECPInt:  NShTT=     120 NPrTT=     376 LenC2=     121 LenP2D=     370.
 LDataN:  DoStor=T MaxTD1= 7 Len=  274
 Symmetrizing basis deriv contribution to polar:
 IMax=3 JMax=2 DiffMx= 0.00D+00
 G2DrvN: will do     3 centers at a time, making    1 passes.
 Calling FoFCou, ICntrl=  3107 FMM=F I1Cent=   0 AccDes= 0.00D+00.
 End of G2Drv F.D. properties file   721 does not exist.
 End of G2Drv F.D. properties file   722 does not exist.
 End of G2Drv F.D. properties file   788 does not exist.
          IDoAtm=11
          Differentiating once with respect to electric field.
                with respect to dipole field.
          Differentiating once with respect to nuclear coordinates.
 Keep R1 ints in memory in symmetry-blocked form, NReq=7145870.
          There are     9 degrees of freedom in the 1st order CPHF.  IDoFFX=6 NUNeed=     3.
      6 vectors produced by pass  0 Test12= 1.78D-15 1.11D-08 XBig12= 1.34D+00 8.93D-01.
 AX will form     6 AO Fock derivatives at one time.
      6 vectors produced by pass  1 Test12= 1.78D-15 1.11D-08 XBig12= 1.44D-01 1.78D-01.
      6 vectors produced by pass  2 Test12= 1.78D-15 1.11D-08 XBig12= 2.38D-03 1.84D-02.
      6 vectors produced by pass  3 Test12= 1.78D-15 1.11D-08 XBig12= 1.93D-05 2.35D-03.
      6 vectors produced by pass  4 Test12= 1.78D-15 1.11D-08 XBig12= 9.97D-08 1.55D-04.
      6 vectors produced by pass  5 Test12= 1.78D-15 1.11D-08 XBig12= 9.13D-11 4.38D-06.
      3 vectors produced by pass  6 Test12= 1.78D-15 1.11D-08 XBig12= 2.02D-13 1.56D-07.
 InvSVY:  IOpt=1 It=  1 EMax= 2.22D-16
 Solved reduced A of dimension    39 with     6 vectors.
 Isotropic polarizability for W=    0.000000        3.45 Bohr**3.
 End of Minotr F.D. properties file   721 does not exist.
 End of Minotr F.D. properties file   722 does not exist.
 End of Minotr F.D. properties file   788 does not exist.

 **********************************************************************

            Population analysis using the SCF Density.

 **********************************************************************

 Orbital symmetries:
       Occupied  (SG) (SG) (SG) (PI) (PI)
       Virtual   (SG) (SG) (PI) (PI) (SG) (SG) (PI) (PI) (SG) (DLTA)
                 (DLTA) (SG) (PI) (PI) (SG) (PI) (PI) (SG) (SG)
                 (DLTA) (DLTA) (PHI) (PHI) (PI) (PI) (SG) (DLTA)
                 (DLTA) (PI) (PI) (SG) (SG)
 The electronic state is 1-SG.
 Alpha  occ. eigenvalues --  -25.23292  -1.34124  -0.63787  -0.51333  -0.51333
 Alpha virt. eigenvalues --    0.05122   0.43816   0.58281   0.58281   0.58855
 Alpha virt. eigenvalues --    0.76150   1.42249   1.42249   1.85779   2.02282
 Alpha virt. eigenvalues --    2.02282   2.32581   2.49188   2.49188   2.93264
 Alpha virt. eigenvalues --    3.24660   3.24660   3.53457   4.58160   6.88955
 Alpha virt. eigenvalues --    6.88955   6.93105   6.93105   7.05665   7.05665
 Alpha virt. eigenvalues --    7.46568   8.27840   8.27840   8.44650   8.44650
 Alpha virt. eigenvalues --    9.05671  56.82909
          Condensed to atoms (all electrons):
               1          2
     1  F    9.144145   0.264174
     2  H    0.264174   0.327508
 Mulliken charges:
               1
     1  F   -0.408318
     2  H    0.408318
 Sum of Mulliken charges =   0.00000
 Mulliken charges with hydrogens summed into heavy atoms:
               1
     1  F    0.000000
 APT charges:
               1
     1  F   -0.413317
     2  H    0.413317
 Sum of APT charges =   0.00000
 APT charges with hydrogens summed into heavy atoms:
               1
     1  F    0.000000
 Electronic spatial extent (au):  <R**2>=             13.9292
 Charge=              0.0000 electrons
 Dipole moment (field-independent basis, Debye):
    X=              0.0000    Y=              0.0000    Z=             -1.9539  Tot=              1.9539
 Quadrupole moment (field-independent basis, Debye-Ang):
   XX=             -5.7203   YY=             -5.7203   ZZ=             -3.6337
   XY=              0.0000   XZ=              0.0000   YZ=              0.0000
 Traceless Quadrupole moment (field-independent basis, Debye-Ang):
   XX=             -0.6955   YY=             -0.6955   ZZ=              1.3910
   XY=              0.0000   XZ=              0.0000   YZ=              0.0000
 Octapole moment (field-independent basis, Debye-Ang**2):
  XXX=              0.0000  YYY=              0.0000  ZZZ=             -1.9380  XYY=              0.0000
  XXY=              0.0000  XXZ=             -0.1975  XZZ=              0.0000  YZZ=              0.0000
  YYZ=             -0.1975  XYZ=              0.0000
 Hexadecapole moment (field-independent basis, Debye-Ang**3):
 XXXX=             -3.7026 YYYY=             -3.7026 ZZZZ=             -3.3221 XXXY=              0.0000
 XXXZ=              0.0000 YYYX=              0.0000 YYYZ=              0.0000 ZZZX=              0.0000
 ZZZY=              0.0000 XXYY=             -1.2342 XXZZ=             -1.4173 YYZZ=             -1.4173
 XXYZ=              0.0000 YYXZ=              0.0000 ZZXY=              0.0000
 N-N= 5.175227951900D+00 E-N=-2.506183487750D+02  KE= 1.001256337891D+02
 Symmetry A1   KE= 8.750347190860D+01
 Symmetry A2   KE=-1.515691147729D-51
 Symmetry B1   KE= 6.311080940257D+00
 Symmetry B2   KE= 6.311080940257D+00
  Exact polarizability:       2.699       0.000       2.699      -0.000       0.000       4.967
 Approx polarizability:       2.541      -0.000       2.541      -0.000      -0.000       5.180
   4 Symmetry operations used in ECPInt.
 ECPInt:  NShTT=     120 NPrTT=     376 LenC2=     121 LenP2D=     370.
 LDataN:  DoStor=T MaxTD1= 8 Len=  415
 Calling FoFJK, ICntrl=    100127 FMM=F ISym2X=1 I1Cent= 0 IOpClX= 0 NMat=1 NMatS=1 NMatT=0.
 Full mass-weighted force constant matrix:
 Low frequencies ---  -41.0665  -41.0665    0.0009    0.0009    0.0016 4171.8445
 Diagonal vibrational polarizability:
        0.0000000       0.0000000       0.1994388
 Harmonic frequencies (cm**-1), IR intensities (KM/Mole), Raman scattering
 activities (A**4/AMU), depolarization ratios for plane and unpolarized
 incident light, reduced masses (AMU), force constants (mDyne/A),
 and normal coordinates:
                      1
                     SG
 Frequencies --   4171.8445
 Red. masses --      1.0583
 Frc consts  --     10.8522
 IR Inten    --    128.9831
  Atom  AN      X      Y      Z
     1   9    -0.00  -0.00  -0.05
     2   1    -0.00  -0.00   1.00

 -------------------
 - Thermochemistry -
 -------------------
 Temperature   298.150 Kelvin.  Pressure   1.00000 Atm.
 Atom     1 has atomic number  9 and mass  18.99840
 Atom     2 has atomic number  1 and mass   1.00783
 Molecular mass:    20.00623 amu.
 Principal axes and moments of inertia in atomic units:
                           1         2         3
     Eigenvalues --     0.00000   2.89443   2.89443
           X            0.00000  -0.00000   1.00000
           Y            0.00000   1.00000   0.00000
           Z            1.00000   0.00000   0.00000
 This molecule is a prolate symmetric top.
 Rotational symmetry number  1.
 Rotational temperature (Kelvin)     29.92434
 Rotational constant (GHZ):         623.522110
 Zero-point vibrational energy      24953.2 (Joules/Mol)
                                    5.96395 (Kcal/Mol)
 Vibrational temperatures:   6002.35
          (Kelvin)
 
 Zero-point correction=                           0.009504 (Hartree/Particle)
 Thermal correction to Energy=                    0.011865
 Thermal correction to Enthalpy=                  0.012809
 Thermal correction to Gibbs Free Energy=        -0.006898
 Sum of electronic and zero-point Energies=           -100.441658
 Sum of electronic and thermal Energies=              -100.439298
 Sum of electronic and thermal Enthalpies=            -100.438354
 Sum of electronic and thermal Free Energies=         -100.458061
 
                     E (Thermal)             CV                S
                      KCal/Mol        Cal/Mol-Kelvin    Cal/Mol-Kelvin
 Total                    7.445              4.968             41.477
 Electronic               0.000              0.000              0.000
 Translational            0.889              2.981             34.922
 Rotational               0.592              1.987              6.556
 Vibrational              5.964              0.000              0.000
                       Q            Log10(Q)             Ln(Q)
 Total Bot       0.148938D+04          3.173005          7.306114
 Total V=0       0.350439D+08          7.544612         17.372111
 Vib (Bot)       0.425004D-04         -4.371607        -10.065997
 Vib (V=0)       0.100000D+01          0.000000          0.000000
 Electronic      0.100000D+01          0.000000          0.000000
 Translational   0.351724D+07          6.546202         15.073186
 Rotational      0.996346D+01          0.998410          2.298924
 ***** Axes restored to original set *****
 -------------------------------------------------------------------
 Center     Atomic                   Forces (Hartrees/Bohr)
 Number     Number              X              Y              Z
 -------------------------------------------------------------------
      1        9           0.000000099   -0.000000000   -0.000000000
      2        1          -0.000000099   -0.000000000   -0.000000000
 -------------------------------------------------------------------
 Cartesian Forces:  Max     0.000000099 RMS     0.000000057
 FormGI is forming the generalized inverse of G from B-inverse, IUseBI=4.

 GradGradGradGradGradGradGradGradGradGradGradGradGradGradGradGradGradGrad
 Berny optimization.
 Internal  Forces:  Max     0.000000099 RMS     0.000000099
 Search for a local minimum.
 Step number   1 out of a maximum of    2
 All quantities printed in internal units (Hartrees-Bohrs-Radians)
 Second derivative matrix not updated -- analytic derivatives used.
 The second derivative matrix:
                          R1
           R1           0.63035
 ITU=  0
     Eigenvalues ---    0.63035
 Angle between quadratic step and forces=  90.00 degrees.
 Linear search not attempted -- first point.
 Iteration  1 RMS(Cart)=  0.00000011 RMS(Int)=  0.00000000
 ClnCor:  largest displacement from symmetrization is 0.00D+00 for atom     0.
 Variable       Old X    -DE/DX   Delta X   Delta X   Delta X     New X
                                 (Linear)    (Quad)   (Total)
    R1        1.73905   0.00000   0.00000   0.00000   0.00000   1.73905
         Item               Value     Threshold  Converged?
 Maximum Force            0.000000     0.000450     YES
 RMS     Force            0.000000     0.000300     YES
 Maximum Displacement     0.000000     0.001800     YES
 RMS     Displacement     0.000000     0.001200     YES
 Predicted change in Energy=-7.784690D-15
 Optimization completed.
    -- Stationary point found.
                           ----------------------------
                           !   Optimized Parameters   !
                           ! (Angstroms and Degrees)  !
 --------------------------                            --------------------------
 ! Name  Definition              Value          Derivative Info.                !
 --------------------------------------------------------------------------------
 ! R1    R(1,2)                  0.9203         -DE/DX =    0.0                 !
 --------------------------------------------------------------------------------
 GradGradGradGradGradGradGradGradGradGradGradGradGradGradGradGradGradGrad


 ----------------------------------------------------------------------

 Electric dipole moment (input orientation):
 (Debye = 10**-18 statcoulomb cm , SI units = C m)
                  (au)            (Debye)         (10**-30 SI)
   Tot        0.768732D+00      0.195392D+01      0.651758D+01
   x         -0.768732D+00     -0.195392D+01     -0.651758D+01
   y          0.000000D+00      0.000000D+00      0.000000D+00
   z          0.000000D+00      0.000000D+00      0.000000D+00

 Dipole polarizability, Alpha (input orientation).
 (esu units = cm**3 , SI units = C**2 m**2 J**-1)
 Alpha(0;0):
               (au)            (10**-24 esu)      (10**-40 SI)
   iso        0.345482D+01      0.511952D+00      0.569623D+00
   aniso      0.226849D+01      0.336156D+00      0.374023D+00
   xx         0.496715D+01      0.736055D+00      0.818972D+00
   yx         0.000000D+00      0.000000D+00      0.000000D+00
   yy         0.269866D+01      0.399900D+00      0.444948D+00
   zx         0.000000D+00      0.000000D+00      0.000000D+00
   zy         0.000000D+00      0.000000D+00      0.000000D+00
   zz         0.269866D+01      0.399900D+00      0.444948D+00

 ----------------------------------------------------------------------

 Dipole orientation:
     9          0.00000000          0.00000000         -0.07739152
     1         -0.00000000          0.00000000          1.66166231

 Electric dipole moment (dipole orientation):
 (Debye = 10**-18 statcoulomb cm , SI units = C m)
                  (au)            (Debye)         (10**-30 SI)
   Tot        0.768732D+00      0.195392D+01      0.651758D+01
   x          0.000000D+00      0.000000D+00      0.000000D+00
   y          0.000000D+00      0.000000D+00      0.000000D+00
   z          0.768732D+00      0.195392D+01      0.651758D+01

 Dipole polarizability, Alpha (dipole orientation).
 (esu units = cm**3 , SI units = C**2 m**2 J**-1)
 Alpha(0;0):
               (au)            (10**-24 esu)      (10**-40 SI)
   iso        0.345482D+01      0.511952D+00      0.569623D+00
   aniso      0.226849D+01      0.336156D+00      0.374023D+00
   xx         0.269866D+01      0.399900D+00      0.444948D+00
   yx         0.000000D+00      0.000000D+00      0.000000D+00
   yy         0.269866D+01      0.399900D+00      0.444948D+00
   zx         0.000000D+00      0.000000D+00      0.000000D+00
   zy         0.000000D+00      0.000000D+00      0.000000D+00
   zz         0.496715D+01      0.736055D+00      0.818972D+00

 ----------------------------------------------------------------------
 Unable to Open any file for archive entry.
 1\1\GINC-NODE12\Freq\RM062X\def2TZVP\F1H1\SVSS\20-Jun-2022\0\\#N Geom=
 AllCheck Guess=TCheck SCRF=Check GenChk RM062X/def2TZVP Freq\\converte
 d from /home/svss/projects/Project-Philicity/GS/hydrocarbon/set-1/GS/m
 ol_35_hc/mol_35_hc_cregen_best.xyz\\0,1\F,0.0409538282,0.,0.\H,-0.8793
 138282,0.,0.\\Version=AS64L-G16RevC.01\State=1-SG\HF=-100.4511623\RMSD
 =1.817e-10\RMSF=5.720e-08\ZeroPoint=0.0095042\Thermal=0.0118646\ETot=-
 100.4392977\HTot=-100.4383535\GTot=-100.4580606\Dipole=-0.7687318,0.,0
 .\DipoleDeriv=-0.3558437,0.,0.,0.,-0.4420533,0.,0.,0.,-0.4420533,0.355
 8437,0.,0.,0.,0.4420533,0.,0.,0.,0.4420533\Polar=4.9671468,0.,2.698656
 9,0.,0.,2.6986569\Quadrupole=1.0342108,-0.5171054,-0.5171054,0.,0.,0.\
 PG=C*V [C*(H1F1)]\NImag=0\\0.63035426,0.,-0.00006108,0.,0.,-0.00006108
 ,-0.63035426,0.,0.,0.63035426,0.,0.00006108,0.,0.,-0.00006108,0.,0.,0.
 00006108,0.,0.,-0.00006108\\-0.00000010,0.,0.,0.00000010,0.,0.\\\@
 The archive entry for this job was punched.


 THE WORLD IS MADE UP OF THE WILLS, THE WON'TS, AND THE CANT'S:
 THE WILLS DO EVERYTHING,
 THE WON'TS DO NOTHING,
 THE CAN'TS CAN'T DO ANYTHING.

                               -- FROM WALT DISNEY'S "BLACK HOLE"
 Job cpu time:       0 days  0 hours  0 minutes 11.7 seconds.
 Elapsed time:       0 days  0 hours  0 minutes  3.0 seconds.
 File lengths (MBytes):  RWF=     17 Int=      0 D2E=      0 Chk=      2 Scr=      2
 Normal termination of Gaussian 16 at Mon Jun 20 20:15:45 2022.
