 Entering Gaussian System, Link 0=/opt/apps/Gaussian/G16C/g16/g16
 Input=/home/svss/projects/Project-Philicity/GS/hydrocarbon/set-1/GS/mol_29_hc/mol_29_hc.com
 Output=/home/svss/projects/Project-Philicity/GS/hydrocarbon/set-1/GS/mol_29_hc/mol_29_hc.log
 Initial command:
 /opt/apps/Gaussian/G16C/g16/l1.exe "/home/svss/projects/Project-Philicity/GS/hydrocarbon/set-1/Gau-271724.inp" -scrdir="/home/svss/projects/Project-Philicity/GS/hydrocarbon/set-1/"
 Entering Link 1 = /opt/apps/Gaussian/G16C/g16/l1.exe PID=    271725.
  
 Copyright (c) 1988-2019, Gaussian, Inc.  All Rights Reserved.
  
 This is part of the Gaussian(R) 16 program.  It is based on
 the Gaussian(R) 09 system (copyright 2009, Gaussian, Inc.),
 the Gaussian(R) 03 system (copyright 2003, Gaussian, Inc.),
 the Gaussian(R) 98 system (copyright 1998, Gaussian, Inc.),
 the Gaussian(R) 94 system (copyright 1995, Gaussian, Inc.),
 the Gaussian 92(TM) system (copyright 1992, Gaussian, Inc.),
 the Gaussian 90(TM) system (copyright 1990, Gaussian, Inc.),
 the Gaussian 88(TM) system (copyright 1988, Gaussian, Inc.),
 the Gaussian 86(TM) system (copyright 1986, Carnegie Mellon
 University), and the Gaussian 82(TM) system (copyright 1983,
 Carnegie Mellon University). Gaussian is a federally registered
 trademark of Gaussian, Inc.
  
 This software contains proprietary and confidential information,
 including trade secrets, belonging to Gaussian, Inc.
  
 This software is provided under written license and may be
 used, copied, transmitted, or stored only in accord with that
 written license.
  
 The following legend is applicable only to US Government
 contracts under FAR:
  
                    RESTRICTED RIGHTS LEGEND
  
 Use, reproduction and disclosure by the US Government is
 subject to restrictions as set forth in subparagraphs (a)
 and (c) of the Commercial Computer Software - Restricted
 Rights clause in FAR 52.227-19.
  
 Gaussian, Inc.
 340 Quinnipiac St., Bldg. 40, Wallingford CT 06492
  
  
 ---------------------------------------------------------------
 Warning -- This program may not be used in any manner that
 competes with the business of Gaussian, Inc. or will provide
 assistance to any competitor of Gaussian, Inc.  The licensee
 of this program is prohibited from giving any competitor of
 Gaussian, Inc. access to this program.  By using this program,
 the user acknowledges that Gaussian, Inc. is engaged in the
 business of creating and licensing software in the field of
 computational chemistry and represents and warrants to the
 licensee that it is not a competitor of Gaussian, Inc. and that
 it will not use this program in any manner prohibited above.
 ---------------------------------------------------------------
  

 Cite this work as:
 Gaussian 16, Revision C.01,
 M. J. Frisch, G. W. Trucks, H. B. Schlegel, G. E. Scuseria, 
 M. A. Robb, J. R. Cheeseman, G. Scalmani, V. Barone, 
 G. A. Petersson, H. Nakatsuji, X. Li, M. Caricato, A. V. Marenich, 
 J. Bloino, B. G. Janesko, R. Gomperts, B. Mennucci, H. P. Hratchian, 
 J. V. Ortiz, A. F. Izmaylov, J. L. Sonnenberg, D. Williams-Young, 
 F. Ding, F. Lipparini, F. Egidi, J. Goings, B. Peng, A. Petrone, 
 T. Henderson, D. Ranasinghe, V. G. Zakrzewski, J. Gao, N. Rega, 
 G. Zheng, W. Liang, M. Hada, M. Ehara, K. Toyota, R. Fukuda, 
 J. Hasegawa, M. Ishida, T. Nakajima, Y. Honda, O. Kitao, H. Nakai, 
 T. Vreven, K. Throssell, J. A. Montgomery, Jr., J. E. Peralta, 
 F. Ogliaro, M. J. Bearpark, J. J. Heyd, E. N. Brothers, K. N. Kudin, 
 V. N. Staroverov, T. A. Keith, R. Kobayashi, J. Normand, 
 K. Raghavachari, A. P. Rendell, J. C. Burant, S. S. Iyengar, 
 J. Tomasi, M. Cossi, J. M. Millam, M. Klene, C. Adamo, R. Cammi, 
 J. W. Ochterski, R. L. Martin, K. Morokuma, O. Farkas, 
 J. B. Foresman, and D. J. Fox, Gaussian, Inc., Wallingford CT, 2019.
 
 ******************************************
 Gaussian 16:  AS64L-G16RevC.01  3-Jul-2019
                20-Jun-2022 
 ******************************************
 %nproc=8
 Will use up to    8 processors via shared memory.
 %mem=96GB
 %chk=/home/svss/projects/Project-Philicity/GS/hydrocarbon/set-1/GS/mol_29_hc/mol
 _29_hc.chk
 -------------------------
 # opt freq M062X/def2tzvp
 -------------------------
 1/18=20,19=15,26=3,38=1/1,3;
 2/9=110,12=2,17=6,18=5,40=1/2;
 3/5=44,7=101,11=2,25=1,30=1,71=1,74=-55/1,2,3;
 4//1;
 5/5=2,38=5/2;
 6/7=2,8=2,9=2,10=2,28=1/1;
 7//1,2,3,16;
 1/18=20,19=15,26=3/3(2);
 2/9=110/2;
 99//99;
 2/9=110/2;
 3/5=44,7=101,11=2,25=1,30=1,71=1,74=-55/1,2,3;
 4/5=5,16=3,69=1/1;
 5/5=2,38=5/2;
 7//1,2,3,16;
 1/18=20,19=15,26=3/3(-5);
 2/9=110/2;
 6/7=2,8=2,9=2,10=2,19=2,28=1/1;
 99/9=1/99;
 ----------------------------------------------------------------------
 converted from /home/svss/projects/Project-Philicity/GS/hydrocarbon/se
 t-1/GS/mol_29_hc/mol_29_hc_cregen_best.xyz
 ----------------------------------------------------------------------
 Symbolic Z-matrix:
 Charge =  0 Multiplicity = 1
 O                    -2.13681  -1.23841  -0.26459 
 S                    -1.59544  -0.00068   0.20967 
 O                    -2.13688   1.23969  -0.2577 
 C                     0.18036  -0.00015   0.07621 
 C                     0.84802  -1.20758   0.0406 
 C                     2.23137  -1.20473  -0.0336 
 C                     2.91707   0.00032  -0.06936 
 C                     2.23081   1.20512  -0.03666 
 C                     0.84741   1.20748   0.03721 
 H                    -1.79349  -0.0047    1.60677 
 H                     0.27625  -2.12188   0.05725 
 H                     2.77331  -2.13746  -0.06579 
 H                     3.99515   0.00046  -0.12852 
 H                     2.77226   2.13803  -0.0717 
 H                     0.27507   2.12151   0.0516 
 

 GradGradGradGradGradGradGradGradGradGradGradGradGradGradGradGradGradGrad
 Berny optimization.
 Initialization pass.
                           ----------------------------
                           !    Initial Parameters    !
                           ! (Angstroms and Degrees)  !
 --------------------------                            --------------------------
 ! Name  Definition              Value          Derivative Info.                !
 --------------------------------------------------------------------------------
 ! R1    R(1,2)                  1.4318         estimate D2E/DX2                !
 ! R2    R(2,3)                  1.4318         estimate D2E/DX2                !
 ! R3    R(2,4)                  1.7808         estimate D2E/DX2                !
 ! R4    R(2,10)                 1.4111         estimate D2E/DX2                !
 ! R5    R(4,5)                  1.3802         estimate D2E/DX2                !
 ! R6    R(4,9)                  1.3802         estimate D2E/DX2                !
 ! R7    R(5,6)                  1.3853         estimate D2E/DX2                !
 ! R8    R(5,11)                 1.0785         estimate D2E/DX2                !
 ! R9    R(6,7)                  1.3869         estimate D2E/DX2                !
 ! R10   R(6,12)                 1.0792         estimate D2E/DX2                !
 ! R11   R(7,8)                  1.3869         estimate D2E/DX2                !
 ! R12   R(7,13)                 1.0797         estimate D2E/DX2                !
 ! R13   R(8,9)                  1.3854         estimate D2E/DX2                !
 ! R14   R(8,14)                 1.0792         estimate D2E/DX2                !
 ! R15   R(9,15)                 1.0785         estimate D2E/DX2                !
 ! A1    A(1,2,3)              119.8532         estimate D2E/DX2                !
 ! A2    A(1,2,4)              110.6391         estimate D2E/DX2                !
 ! A3    A(1,2,10)             105.8087         estimate D2E/DX2                !
 ! A4    A(3,2,4)              110.632          estimate D2E/DX2                !
 ! A5    A(3,2,10)             105.8177         estimate D2E/DX2                !
 ! A6    A(4,2,10)             102.3663         estimate D2E/DX2                !
 ! A7    A(2,4,5)              118.9508         estimate D2E/DX2                !
 ! A8    A(2,4,9)              118.9687         estimate D2E/DX2                !
 ! A9    A(5,4,9)              122.0689         estimate D2E/DX2                !
 ! A10   A(4,5,6)              118.8574         estimate D2E/DX2                !
 ! A11   A(4,5,11)             118.9983         estimate D2E/DX2                !
 ! A12   A(6,5,11)             122.1384         estimate D2E/DX2                !
 ! A13   A(5,6,7)              119.7921         estimate D2E/DX2                !
 ! A14   A(5,6,12)             120.0831         estimate D2E/DX2                !
 ! A15   A(7,6,12)             120.1246         estimate D2E/DX2                !
 ! A16   A(6,7,8)              120.6319         estimate D2E/DX2                !
 ! A17   A(6,7,13)             119.6816         estimate D2E/DX2                !
 ! A18   A(8,7,13)             119.6857         estimate D2E/DX2                !
 ! A19   A(7,8,9)              119.7911         estimate D2E/DX2                !
 ! A20   A(7,8,14)             120.126          estimate D2E/DX2                !
 ! A21   A(9,8,14)             120.0827         estimate D2E/DX2                !
 ! A22   A(4,9,8)              118.858          estimate D2E/DX2                !
 ! A23   A(4,9,15)             118.9915         estimate D2E/DX2                !
 ! A24   A(8,9,15)             122.1451         estimate D2E/DX2                !
 ! D1    D(1,2,4,5)            -23.2238         estimate D2E/DX2                !
 ! D2    D(1,2,4,9)            157.9921         estimate D2E/DX2                !
 ! D3    D(3,2,4,5)           -158.4739         estimate D2E/DX2                !
 ! D4    D(3,2,4,9)             22.742          estimate D2E/DX2                !
 ! D5    D(10,2,4,5)            89.1474         estimate D2E/DX2                !
 ! D6    D(10,2,4,9)           -89.6366         estimate D2E/DX2                !
 ! D7    D(2,4,5,6)           -178.5969         estimate D2E/DX2                !
 ! D8    D(2,4,5,11)             2.2626         estimate D2E/DX2                !
 ! D9    D(9,4,5,6)              0.1477         estimate D2E/DX2                !
 ! D10   D(9,4,5,11)          -178.9927         estimate D2E/DX2                !
 ! D11   D(2,4,9,8)            178.5814         estimate D2E/DX2                !
 ! D12   D(2,4,9,15)            -2.2445         estimate D2E/DX2                !
 ! D13   D(5,4,9,8)             -0.163          estimate D2E/DX2                !
 ! D14   D(5,4,9,15)           179.0111         estimate D2E/DX2                !
 ! D15   D(4,5,6,7)              0.058          estimate D2E/DX2                !
 ! D16   D(4,5,6,12)          -179.7992         estimate D2E/DX2                !
 ! D17   D(11,5,6,7)           179.1702         estimate D2E/DX2                !
 ! D18   D(11,5,6,12)           -0.6871         estimate D2E/DX2                !
 ! D19   D(5,6,7,8)             -0.246          estimate D2E/DX2                !
 ! D20   D(5,6,7,13)          -179.9187         estimate D2E/DX2                !
 ! D21   D(12,6,7,8)           179.6112         estimate D2E/DX2                !
 ! D22   D(12,6,7,13)           -0.0616         estimate D2E/DX2                !
 ! D23   D(6,7,8,9)              0.2305         estimate D2E/DX2                !
 ! D24   D(6,7,8,14)          -179.5815         estimate D2E/DX2                !
 ! D25   D(13,7,8,9)           179.9032         estimate D2E/DX2                !
 ! D26   D(13,7,8,14)            0.0912         estimate D2E/DX2                !
 ! D27   D(7,8,9,4)             -0.0275         estimate D2E/DX2                !
 ! D28   D(7,8,9,15)          -179.1743         estimate D2E/DX2                !
 ! D29   D(14,8,9,4)           179.7846         estimate D2E/DX2                !
 ! D30   D(14,8,9,15)            0.6378         estimate D2E/DX2                !
 --------------------------------------------------------------------------------
 Trust Radius=3.00D-01 FncErr=1.00D-07 GrdErr=1.00D-06 EigMax=2.50D+02 EigMin=1.00D-04
 Number of steps in this run=     79 maximum allowed number of steps=    100.
 GradGradGradGradGradGradGradGradGradGradGradGradGradGradGradGradGradGrad

                          Input orientation:                          
 ---------------------------------------------------------------------
 Center     Atomic      Atomic             Coordinates (Angstroms)
 Number     Number       Type             X           Y           Z
 ---------------------------------------------------------------------
      1          8           0       -2.136810   -1.238410   -0.264590
      2         16           0       -1.595440   -0.000680    0.209670
      3          8           0       -2.136880    1.239690   -0.257700
      4          6           0        0.180360   -0.000150    0.076210
      5          6           0        0.848020   -1.207580    0.040600
      6          6           0        2.231370   -1.204730   -0.033600
      7          6           0        2.917070    0.000320   -0.069360
      8          6           0        2.230810    1.205120   -0.036660
      9          6           0        0.847410    1.207480    0.037210
     10          1           0       -1.793490   -0.004700    1.606770
     11          1           0        0.276250   -2.121880    0.057250
     12          1           0        2.773310   -2.137460   -0.065790
     13          1           0        3.995150    0.000460   -0.128520
     14          1           0        2.772260    2.138030   -0.071700
     15          1           0        0.275070    2.121510    0.051600
 ---------------------------------------------------------------------
                    Distance matrix (angstroms):
                    1          2          3          4          5
     1  O    0.000000
     2  S    1.431775   0.000000
     3  O    2.478110   1.431820   0.000000
     4  C    2.649285   1.780808   2.649207   0.000000
     5  C    3.000550   2.730511   3.871400   1.380190   0.000000
     6  C    4.374413   4.019128   5.010690   2.381116   1.385341
     7  C    5.207136   4.521129   5.207103   2.740579   2.398350
     8  C    5.009880   4.019306   4.373416   2.381126   2.781942
     9  C    3.870275   2.730734   2.998999   1.380162   2.415062
    10  H    2.267575   1.411073   2.267746   2.497743   3.298088
    11  H    2.589780   2.833010   4.150005   2.123980   1.078491
    12  H    4.995707   4.871107   5.962545   3.363279   2.140733
    13  H    6.257335   5.600810   6.257329   3.820280   3.375261
    14  H    5.961252   4.871350   4.994123   3.363278   3.861142
    15  H    4.148036   2.833282   2.586653   2.123915   3.378052
                    6          7          8          9         10
     6  C    0.000000
     7  C    1.386942   0.000000
     8  C    2.409852   1.386927   0.000000
     9  C    2.781927   2.398350   1.385373   0.000000
    10  H    4.508923   4.999881   4.512152   3.302613   0.000000
    11  H    2.161461   3.390235   3.859800   3.378056   3.341749
    12  H    1.079222   2.142611   3.386443   3.861130   5.310535
    13  H    2.138320   1.079702   2.138350   3.375297   6.043146
    14  H    3.386452   2.142610   1.079221   2.140755   5.315508
    15  H    3.859824   3.390316   2.161592   1.078532   3.349368
                   11         12         13         14         15
    11  H    0.000000
    12  H    2.500138   0.000000
    13  H    4.285914   2.463236   0.000000
    14  H    4.938980   4.275494   2.463310   0.000000
    15  H    4.243394   4.939009   4.286058   2.500287   0.000000
 Stoichiometry    C6H6O2S
 Framework group  C1[X(C6H6O2S)]
 Deg. of freedom    39
 Full point group                 C1      NOp   1
 Largest Abelian subgroup         C1      NOp   1
 Largest concise Abelian subgroup C1      NOp   1
                         Standard orientation:                         
 ---------------------------------------------------------------------
 Center     Atomic      Atomic             Coordinates (Angstroms)
 Number     Number       Type             X           Y           Z
 ---------------------------------------------------------------------
      1          8           0       -2.190385   -1.238279   -0.290178
      2         16           0       -1.652401   -0.000663    0.188215
      3          8           0       -2.190456    1.239820   -0.282750
      4          6           0        0.124309   -0.000141    0.067475
      5          6           0        0.792184   -1.207577    0.036384
      6          6           0        2.176030   -1.204740   -0.027908
      7          6           0        2.861992    0.000303   -0.058495
      8          6           0        2.175538    1.205110   -0.030448
      9          6           0        0.791645    1.207483    0.033515
     10          1           0       -1.860450   -0.004982    1.583860
     11          1           0        0.220292   -2.121869    0.048741
     12          1           0        2.718168   -2.137474   -0.056419
     13          1           0        3.940468    0.000434   -0.109933
     14          1           0        2.717243    2.138017   -0.061407
     15          1           0        0.219234    2.121522    0.044005
 ---------------------------------------------------------------------
 Rotational constants (GHZ):           3.5180837           0.9947233           0.7910372
 Standard basis: def2TZVP (5D, 7F)
 There are   366 symmetry adapted cartesian basis functions of A   symmetry.
 There are   321 symmetry adapted basis functions of A   symmetry.
   321 basis functions,   525 primitive gaussians,   366 cartesian basis functions
    37 alpha electrons       37 beta electrons
       nuclear repulsion energy       523.1254028334 Hartrees.
 NAtoms=   15 NActive=   15 NUniq=   15 SFac= 1.00D+00 NAtFMM=   60 NAOKFM=F Big=F
 Integral buffers will be    131072 words long.
 Raffenetti 2 integral format.
 Two-electron integral symmetry is turned on.
 One-electron integrals computed using PRISM.
   1 Symmetry operations used in ECPInt.
 ECPInt:  NShTT=    7875 NPrTT=   25206 LenC2=    7582 LenP2D=   18850.
 LDataN:  DoStor=T MaxTD1= 6 Len=  172
 NBasis=   321 RedAO= T EigKep=  8.46D-06  NBF=   321
 NBsUse=   321 1.00D-06 EigRej= -1.00D+00 NBFU=   321
 ExpMin= 9.52D-02 ExpMax= 6.07D+04 ExpMxC= 2.07D+03 IAcc=3 IRadAn=         5 AccDes= 0.00D+00
 Harris functional with IExCor= 1009 and IRadAn=       5 diagonalized for initial guess.
 HarFok:  IExCor= 1009 AccDes= 0.00D+00 IRadAn=         5 IDoV= 1 UseB2=F ITyADJ=14
 ICtDFT=  3500011 ScaDFX=  1.000000  1.000000  1.000000  1.000000
 FoFCou: FMM=F IPFlag=           0 FMFlag=      100000 FMFlg1=           0
         NFxFlg=           0 DoJE=T BraDBF=F KetDBF=T FulRan=T
         wScrn=  0.000000 ICntrl=       500 IOpCl=  0 I1Cent=   200000004 NGrid=           0
         NMat0=    1 NMatS0=      1 NMatT0=    0 NMatD0=    1 NMtDS0=    0 NMtDT0=    0
 Petite list used in FoFCou.
 Requested convergence on RMS density matrix=1.00D-08 within 128 cycles.
 Requested convergence on MAX density matrix=1.00D-06.
 Requested convergence on             energy=1.00D-06.
 No special actions if energy rises.
 Integral accuracy reduced to 1.0D-05 until final iterations.
 Initial convergence to 1.0D-05 achieved.  Increase integral accuracy.
 SCF Done:  E(RM062X) =  -780.834617828     A.U. after   14 cycles
            NFock= 14  Conv=0.55D-08     -V/T= 2.0029

 **********************************************************************

            Population analysis using the SCF Density.

 **********************************************************************

 Orbital symmetries:
       Occupied  (A) (A) (A) (A) (A) (A) (A) (A) (A) (A) (A) (A)
                 (A) (A) (A) (A) (A) (A) (A) (A) (A) (A) (A) (A)
                 (A) (A) (A) (A) (A) (A) (A) (A) (A) (A) (A) (A)
                 (A)
       Virtual   (A) (A) (A) (A) (A) (A) (A) (A) (A) (A) (A) (A)
                 (A) (A) (A) (A) (A) (A) (A) (A) (A) (A) (A) (A)
                 (A) (A) (A) (A) (A) (A) (A) (A) (A) (A) (A) (A)
                 (A) (A) (A) (A) (A) (A) (A) (A) (A) (A) (A) (A)
                 (A) (A) (A) (A) (A) (A) (A) (A) (A) (A) (A) (A)
                 (A) (A) (A) (A) (A) (A) (A) (A) (A) (A) (A) (A)
                 (A) (A) (A) (A) (A) (A) (A) (A) (A) (A) (A) (A)
                 (A) (A) (A) (A) (A) (A) (A) (A) (A) (A) (A) (A)
                 (A) (A) (A) (A) (A) (A) (A) (A) (A) (A) (A) (A)
                 (A) (A) (A) (A) (A) (A) (A) (A) (A) (A) (A) (A)
                 (A) (A) (A) (A) (A) (A) (A) (A) (A) (A) (A) (A)
                 (A) (A) (A) (A) (A) (A) (A) (A) (A) (A) (A) (A)
                 (A) (A) (A) (A) (A) (A) (A) (A) (A) (A) (A) (A)
                 (A) (A) (A) (A) (A) (A) (A) (A) (A) (A) (A) (A)
                 (A) (A) (A) (A) (A) (A) (A) (A) (A) (A) (A) (A)
                 (A) (A) (A) (A) (A) (A) (A) (A) (A) (A) (A) (A)
                 (A) (A) (A) (A) (A) (A) (A) (A) (A) (A) (A) (A)
                 (A) (A) (A) (A) (A) (A) (A) (A) (A) (A) (A) (A)
                 (A) (A) (A) (A) (A) (A) (A) (A) (A) (A) (A) (A)
                 (A) (A) (A) (A) (A) (A) (A) (A) (A) (A) (A) (A)
                 (A) (A) (A) (A) (A) (A) (A) (A) (A) (A) (A) (A)
                 (A) (A) (A) (A) (A) (A) (A) (A) (A) (A) (A) (A)
                 (A) (A) (A) (A) (A) (A) (A) (A) (A) (A) (A) (A)
                 (A) (A) (A) (A) (A) (A) (A) (A)
 The electronic state is 1-A.
 Alpha  occ. eigenvalues --  -90.09624 -19.62588 -19.62586 -10.59054 -10.57673
 Alpha  occ. eigenvalues --  -10.57668 -10.57361 -10.57096 -10.57083  -8.42721
 Alpha  occ. eigenvalues --   -6.34840  -6.34809  -6.34776  -1.24333  -1.13688
 Alpha  occ. eigenvalues --   -1.00211  -0.89519  -0.87918  -0.78214  -0.72561
 Alpha  occ. eigenvalues --   -0.69788  -0.64182  -0.60125  -0.56873  -0.56211
 Alpha  occ. eigenvalues --   -0.54256  -0.53054  -0.52260  -0.47770  -0.46011
 Alpha  occ. eigenvalues --   -0.43681  -0.42134  -0.41887  -0.39630  -0.37196
 Alpha  occ. eigenvalues --   -0.34874  -0.34138
 Alpha virt. eigenvalues --   -0.02952  -0.00851   0.05425   0.06892   0.09613
 Alpha virt. eigenvalues --    0.10358   0.10363   0.11580   0.13576   0.14728
 Alpha virt. eigenvalues --    0.14826   0.15496   0.17684   0.21086   0.21498
 Alpha virt. eigenvalues --    0.22423   0.23586   0.23933   0.25570   0.26233
 Alpha virt. eigenvalues --    0.27351   0.28746   0.29986   0.30052   0.32768
 Alpha virt. eigenvalues --    0.34412   0.35202   0.36060   0.36491   0.37537
 Alpha virt. eigenvalues --    0.38066   0.38300   0.39657   0.42413   0.42736
 Alpha virt. eigenvalues --    0.43015   0.44135   0.45078   0.45360   0.47927
 Alpha virt. eigenvalues --    0.48189   0.50186   0.50721   0.51357   0.51507
 Alpha virt. eigenvalues --    0.54036   0.54362   0.57890   0.59669   0.61972
 Alpha virt. eigenvalues --    0.62685   0.64884   0.66556   0.66973   0.68505
 Alpha virt. eigenvalues --    0.70602   0.70972   0.73667   0.75188   0.75452
 Alpha virt. eigenvalues --    0.76894   0.77016   0.77253   0.81041   0.81591
 Alpha virt. eigenvalues --    0.83629   0.87059   0.89081   0.90147   0.90553
 Alpha virt. eigenvalues --    0.91536   0.93404   0.96587   0.99801   1.02015
 Alpha virt. eigenvalues --    1.02333   1.07632   1.07669   1.09508   1.10909
 Alpha virt. eigenvalues --    1.17917   1.20208   1.20914   1.22072   1.22822
 Alpha virt. eigenvalues --    1.24770   1.24954   1.26595   1.27748   1.30050
 Alpha virt. eigenvalues --    1.35958   1.36744   1.40310   1.40450   1.41534
 Alpha virt. eigenvalues --    1.44830   1.45843   1.47678   1.47684   1.51523
 Alpha virt. eigenvalues --    1.52789   1.54469   1.54884   1.56329   1.57897
 Alpha virt. eigenvalues --    1.58604   1.59708   1.64514   1.64868   1.66698
 Alpha virt. eigenvalues --    1.67109   1.68692   1.70190   1.72400   1.72477
 Alpha virt. eigenvalues --    1.72651   1.77974   1.79524   1.83227   1.83917
 Alpha virt. eigenvalues --    1.84130   1.86709   1.89191   1.92305   1.94155
 Alpha virt. eigenvalues --    1.96697   2.01526   2.04159   2.05236   2.06640
 Alpha virt. eigenvalues --    2.08239   2.11239   2.12617   2.12791   2.16912
 Alpha virt. eigenvalues --    2.17088   2.17733   2.23347   2.23570   2.26308
 Alpha virt. eigenvalues --    2.27699   2.29054   2.31548   2.35918   2.37587
 Alpha virt. eigenvalues --    2.40340   2.42748   2.44766   2.46138   2.48043
 Alpha virt. eigenvalues --    2.49935   2.50014   2.55545   2.58556   2.58875
 Alpha virt. eigenvalues --    2.62542   2.65039   2.66485   2.66706   2.66928
 Alpha virt. eigenvalues --    2.67421   2.68795   2.70828   2.73412   2.73765
 Alpha virt. eigenvalues --    2.76191   2.77078   2.79605   2.80552   2.82509
 Alpha virt. eigenvalues --    2.83821   2.85800   2.86859   2.90104   2.90271
 Alpha virt. eigenvalues --    2.91028   2.96340   2.96652   2.98466   3.01811
 Alpha virt. eigenvalues --    3.04069   3.04859   3.07223   3.08011   3.09534
 Alpha virt. eigenvalues --    3.10574   3.10996   3.11824   3.13201   3.13433
 Alpha virt. eigenvalues --    3.15909   3.17906   3.18381   3.22620   3.23251
 Alpha virt. eigenvalues --    3.23498   3.28643   3.32176   3.34525   3.34956
 Alpha virt. eigenvalues --    3.36320   3.37310   3.40106   3.40590   3.41591
 Alpha virt. eigenvalues --    3.47530   3.48114   3.50040   3.52666   3.54003
 Alpha virt. eigenvalues --    3.54946   3.63065   3.64030   3.71030   3.74525
 Alpha virt. eigenvalues --    3.78156   3.85576   3.87001   3.92619   3.98792
 Alpha virt. eigenvalues --    4.03179   4.04606   4.07229   4.08234   4.14566
 Alpha virt. eigenvalues --    4.14842   4.16745   4.17381   4.19684   4.20792
 Alpha virt. eigenvalues --    4.23510   4.25419   4.30759   4.35461   4.55890
 Alpha virt. eigenvalues --    4.58215   4.58439   4.60966   4.65179   4.77005
 Alpha virt. eigenvalues --    4.82116   4.87173   5.10003   5.10431   5.15006
 Alpha virt. eigenvalues --    5.16392   5.16448   5.16978   5.17171   5.21946
 Alpha virt. eigenvalues --    5.23113   5.27074   5.27217   5.29331   5.32863
 Alpha virt. eigenvalues --    5.34480   5.44691   5.53065   5.54435   5.67607
 Alpha virt. eigenvalues --    5.68011   5.76800   6.30565   6.31917   6.35929
 Alpha virt. eigenvalues --    6.40955   6.69026   6.71252   6.76814   6.78656
 Alpha virt. eigenvalues --    6.89425   6.95577   9.09455   9.53873   9.77211
 Alpha virt. eigenvalues --   22.00717  22.13922  22.68529  22.69952  22.80025
 Alpha virt. eigenvalues --   22.89096  23.22111  43.67044  43.75490
          Condensed to atoms (all electrons):
               1          2          3          4          5          6
     1  O    8.046993   0.553116  -0.047623  -0.081126   0.016250   0.002084
     2  S    0.553116  13.592129   0.553222   0.274664  -0.028481   0.006706
     3  O   -0.047623   0.553222   8.047074  -0.081260   0.010369  -0.000594
     4  C   -0.081126   0.274664  -0.081260   5.459926   0.343847  -0.021058
     5  C    0.016250  -0.028481   0.010369   0.343847   5.105769   0.448999
     6  C    0.002084   0.006706  -0.000594  -0.021058   0.448999   4.937770
     7  C    0.000172  -0.001033   0.000175  -0.067157  -0.020445   0.501722
     8  C   -0.000590   0.006686   0.002079  -0.020906  -0.065922  -0.028716
     9  C    0.010298  -0.028618   0.016249   0.343816  -0.035118  -0.066085
    10  H   -0.050684   0.331907  -0.050609  -0.040277   0.004461  -0.002222
    11  H    0.013767  -0.006280   0.000439  -0.032071   0.401083  -0.023373
    12  H   -0.000016  -0.000123   0.000003   0.005153  -0.031059   0.411041
    13  H   -0.000000   0.000012  -0.000000  -0.001251   0.005489  -0.034011
    14  H    0.000003  -0.000122  -0.000016   0.005145  -0.000325   0.003800
    15  H    0.000438  -0.006392   0.013831  -0.031897   0.007089  -0.001343
               7          8          9         10         11         12
     1  O    0.000172  -0.000590   0.010298  -0.050684   0.013767  -0.000016
     2  S   -0.001033   0.006686  -0.028618   0.331907  -0.006280  -0.000123
     3  O    0.000175   0.002079   0.016249  -0.050609   0.000439   0.000003
     4  C   -0.067157  -0.020906   0.343816  -0.040277  -0.032071   0.005153
     5  C   -0.020445  -0.065922  -0.035118   0.004461   0.401083  -0.031059
     6  C    0.501722  -0.028716  -0.066085  -0.002222  -0.023373   0.411041
     7  C    4.870049   0.501726  -0.020409   0.000636   0.003032  -0.031821
     8  C    0.501726   4.937636   0.448859  -0.002210  -0.001336   0.003799
     9  C   -0.020409   0.448859   5.105797   0.004862   0.007117  -0.000322
    10  H    0.000636  -0.002210   0.004862   0.703130   0.002092   0.000019
    11  H    0.003032  -0.001336   0.007117   0.002092   0.448747  -0.002410
    12  H   -0.031821   0.003799  -0.000322   0.000019  -0.002410   0.493424
    13  H    0.412207  -0.033997   0.005479   0.000001  -0.000121  -0.003568
    14  H   -0.031815   0.411062  -0.031070   0.000018   0.000055  -0.000198
    15  H    0.003042  -0.023527   0.401156   0.002086  -0.000101   0.000055
              13         14         15
     1  O   -0.000000   0.000003   0.000438
     2  S    0.000012  -0.000122  -0.006392
     3  O   -0.000000  -0.000016   0.013831
     4  C   -0.001251   0.005145  -0.031897
     5  C    0.005489  -0.000325   0.007089
     6  C   -0.034011   0.003800  -0.001343
     7  C    0.412207  -0.031815   0.003042
     8  C   -0.033997   0.411062  -0.023527
     9  C    0.005479  -0.031070   0.401156
    10  H    0.000001   0.000018   0.002086
    11  H   -0.000121   0.000055  -0.000101
    12  H   -0.003568  -0.000198   0.000055
    13  H    0.498418  -0.003568  -0.000120
    14  H   -0.003568   0.493396  -0.002407
    15  H   -0.000120  -0.002407   0.448523
 Mulliken charges:
               1
     1  O   -0.463081
     2  S    0.752608
     3  O   -0.463338
     4  C   -0.055549
     5  C   -0.162006
     6  C   -0.134719
     7  C   -0.120080
     8  C   -0.134644
     9  C   -0.162010
    10  H    0.096791
    11  H    0.189359
    12  H    0.156025
    13  H    0.155031
    14  H    0.156044
    15  H    0.189568
 Sum of Mulliken charges =  -0.00000
 Mulliken charges with hydrogens summed into heavy atoms:
               1
     1  O   -0.463081
     2  S    0.849399
     3  O   -0.463338
     4  C   -0.055549
     5  C    0.027353
     6  C    0.021306
     7  C    0.034952
     8  C    0.021400
     9  C    0.027558
 Electronic spatial extent (au):  <R**2>=           1382.4290
 Charge=             -0.0000 electrons
 Dipole moment (field-independent basis, Debye):
    X=              4.8125    Y=             -0.0056    Z=              2.0455  Tot=              5.2291
 Quadrupole moment (field-independent basis, Debye-Ang):
   XX=            -60.2677   YY=            -58.1239   ZZ=            -59.9250
   XY=              0.0139   XZ=             -5.2482   YZ=             -0.0355
 Traceless Quadrupole moment (field-independent basis, Debye-Ang):
   XX=             -0.8289   YY=              1.3150   ZZ=             -0.4861
   XY=              0.0139   XZ=             -5.2482   YZ=             -0.0355
 Octapole moment (field-independent basis, Debye-Ang**2):
  XXX=             27.4536  YYY=             -0.0089  ZZZ=              1.7092  XYY=             14.9149
  XXY=             -0.0321  XXZ=              8.0044  XZZ=            -16.6381  YZZ=              0.0047
  YYZ=              1.2857  XYZ=              0.0351
 Hexadecapole moment (field-independent basis, Debye-Ang**3):
 XXXX=          -1242.2142 YYYY=           -389.7586 ZZZZ=            -82.9666 XXXY=              0.0577
 XXXZ=            -25.7129 YYYX=              0.0235 YYYZ=             -0.0731 ZZZX=             -3.3784
 ZZZY=              0.0158 XXYY=           -294.2858 XXZZ=           -239.6770 YYZZ=            -90.0527
 XXYZ=             -0.1497 YYXZ=             -4.2975 ZZXY=             -0.0031
 N-N= 5.231254028334D+02 E-N=-2.885392099178D+03  KE= 7.785886184608D+02
   1 Symmetry operations used in ECPInt.
 ECPInt:  NShTT=    7875 NPrTT=   25206 LenC2=    7582 LenP2D=   18850.
 LDataN:  DoStor=T MaxTD1= 7 Len=  274
 Calling FoFJK, ICntrl=      2127 FMM=F ISym2X=0 I1Cent= 0 IOpClX= 0 NMat=1 NMatS=1 NMatT=0.
 ***** Axes restored to original set *****
 -------------------------------------------------------------------
 Center     Atomic                   Forces (Hartrees/Bohr)
 Number     Number              X              Y              Z
 -------------------------------------------------------------------
      1        8           0.007154059   -0.003647474   -0.001686442
      2       16          -0.012623983   -0.000012621    0.025335534
      3        8           0.007174143    0.003604715   -0.001654239
      4        6          -0.011761044   -0.000007348    0.000322028
      5        6           0.000489914   -0.004467006   -0.000189609
      6        6          -0.000665850   -0.000288880    0.000252127
      7        6           0.000569057    0.000007271   -0.000120295
      8        6          -0.000667363    0.000269443    0.000164648
      9        6           0.000456527    0.004502352   -0.000130845
     10        1           0.007270720    0.000067372   -0.021412367
     11        1          -0.000173228   -0.003284807   -0.000229298
     12        1           0.000549063   -0.001621514   -0.000178484
     13        1           0.001839374    0.000003583   -0.000073066
     14        1           0.000550128    0.001621904   -0.000158910
     15        1          -0.000161519    0.003253010   -0.000240782
 -------------------------------------------------------------------
 Cartesian Forces:  Max     0.025335534 RMS     0.006071087

 GradGradGradGradGradGradGradGradGradGradGradGradGradGradGradGradGradGrad
 Berny optimization.
 FormGI is forming the generalized inverse of G from B-inverse, IUseBI=4.
 Internal  Forces:  Max     0.022220337 RMS     0.004308839
 Search for a local minimum.
 Step number   1 out of a maximum of   79
 All quantities printed in internal units (Hartrees-Bohrs-Radians)
 Mixed Optimization -- RFO/linear search
 Second derivative matrix not updated -- first step.
 ITU=  0
     Eigenvalues ---    0.00624   0.01681   0.02262   0.02267   0.02272
     Eigenvalues ---    0.02274   0.02292   0.02313   0.02318   0.02343
     Eigenvalues ---    0.08246   0.08676   0.15998   0.15998   0.16000
     Eigenvalues ---    0.16000   0.16000   0.16000   0.21464   0.22000
     Eigenvalues ---    0.22000   0.23500   0.24299   0.24648   0.24994
     Eigenvalues ---    0.27689   0.36030   0.36088   0.36089   0.36172
     Eigenvalues ---    0.36177   0.43597   0.43735   0.47912   0.48136
     Eigenvalues ---    0.48522   0.48935   1.04537   1.04560
 RFO step:  Lambda=-5.42400699D-03 EMin= 6.24173523D-03
 Linear search not attempted -- first point.
 Iteration  1 RMS(Cart)=  0.02941729 RMS(Int)=  0.00081945
 Iteration  2 RMS(Cart)=  0.00091306 RMS(Int)=  0.00041110
 Iteration  3 RMS(Cart)=  0.00000165 RMS(Int)=  0.00041110
 Iteration  4 RMS(Cart)=  0.00000000 RMS(Int)=  0.00041110
 Variable       Old X    -DE/DX   Delta X   Delta X   Delta X     New X
                                 (Linear)    (Quad)   (Total)
    R1        2.70566   0.00101   0.00000   0.00096   0.00096   2.70662
    R2        2.70575   0.00095   0.00000   0.00090   0.00090   2.70665
    R3        3.36524  -0.00891   0.00000  -0.03155  -0.03155   3.33369
    R4        2.66654  -0.02222   0.00000  -0.10097  -0.10097   2.56557
    R5        2.60818   0.00672   0.00000   0.01403   0.01403   2.62221
    R6        2.60813   0.00671   0.00000   0.01400   0.01400   2.62213
    R7        2.61792   0.00109   0.00000   0.00224   0.00224   2.62015
    R8        2.03805   0.00287   0.00000   0.00782   0.00782   2.04588
    R9        2.62094   0.00300   0.00000   0.00572   0.00572   2.62666
   R10        2.03943   0.00168   0.00000   0.00459   0.00459   2.04403
   R11        2.62091   0.00299   0.00000   0.00570   0.00569   2.62661
   R12        2.04034   0.00184   0.00000   0.00503   0.00503   2.04537
   R13        2.61798   0.00109   0.00000   0.00224   0.00224   2.62021
   R14        2.03943   0.00168   0.00000   0.00459   0.00459   2.04403
   R15        2.03813   0.00284   0.00000   0.00773   0.00773   2.04586
    A1        2.09183   0.01296   0.00000   0.04171   0.03961   2.13144
    A2        1.93102  -0.01117   0.00000  -0.04931  -0.05080   1.88021
    A3        1.84671   0.00702   0.00000   0.04371   0.04280   1.88951
    A4        1.93089  -0.01116   0.00000  -0.04931  -0.05080   1.88009
    A5        1.84687   0.00702   0.00000   0.04369   0.04278   1.88964
    A6        1.78663  -0.00505   0.00000  -0.02941  -0.03011   1.75652
    A7        2.07608  -0.00042   0.00000  -0.00255  -0.00257   2.07351
    A8        2.07640  -0.00047   0.00000  -0.00273  -0.00275   2.07365
    A9        2.13050   0.00090   0.00000   0.00548   0.00547   2.13598
   A10        2.07445  -0.00166   0.00000  -0.00621  -0.00620   2.06825
   A11        2.07691   0.00246   0.00000   0.01297   0.01297   2.08988
   A12        2.13172  -0.00081   0.00000  -0.00681  -0.00681   2.12490
   A13        2.09077   0.00069   0.00000   0.00216   0.00215   2.09292
   A14        2.09585  -0.00069   0.00000  -0.00314  -0.00314   2.09270
   A15        2.09657  -0.00001   0.00000   0.00097   0.00097   2.09754
   A16        2.10542   0.00103   0.00000   0.00259   0.00259   2.10801
   A17        2.08884  -0.00051   0.00000  -0.00128  -0.00128   2.08756
   A18        2.08891  -0.00052   0.00000  -0.00132  -0.00132   2.08759
   A19        2.09075   0.00070   0.00000   0.00219   0.00219   2.09293
   A20        2.09659  -0.00001   0.00000   0.00096   0.00095   2.09755
   A21        2.09584  -0.00069   0.00000  -0.00315  -0.00316   2.09268
   A22        2.07446  -0.00166   0.00000  -0.00623  -0.00622   2.06824
   A23        2.07679   0.00246   0.00000   0.01295   0.01295   2.08974
   A24        2.13183  -0.00080   0.00000  -0.00677  -0.00678   2.12506
    D1       -0.40533  -0.00097   0.00000  -0.00986  -0.00947  -0.41480
    D2        2.75748  -0.00122   0.00000  -0.02064  -0.02023   2.73726
    D3       -2.76589   0.00123   0.00000   0.02169   0.02127  -2.74462
    D4        0.39692   0.00098   0.00000   0.01091   0.01052   0.40744
    D5        1.55592   0.00013   0.00000   0.00592   0.00591   1.56183
    D6       -1.56445  -0.00012   0.00000  -0.00486  -0.00484  -1.56930
    D7       -3.11710  -0.00013   0.00000  -0.00569  -0.00572  -3.12282
    D8        0.03949  -0.00002   0.00000  -0.00254  -0.00254   0.03695
    D9        0.00258   0.00011   0.00000   0.00533   0.00533   0.00791
   D10       -3.12401   0.00022   0.00000   0.00848   0.00851  -3.11550
   D11        3.11683   0.00014   0.00000   0.00613   0.00615   3.12298
   D12       -0.03917   0.00002   0.00000   0.00250   0.00250  -0.03668
   D13       -0.00285  -0.00010   0.00000  -0.00489  -0.00490  -0.00775
   D14        3.12433  -0.00022   0.00000  -0.00852  -0.00856   3.11578
   D15        0.00101  -0.00006   0.00000  -0.00246  -0.00246  -0.00144
   D16       -3.13809   0.00007   0.00000   0.00208   0.00208  -3.13601
   D17        3.12711  -0.00014   0.00000  -0.00554  -0.00552   3.12159
   D18       -0.01199  -0.00002   0.00000  -0.00100  -0.00099  -0.01298
   D19       -0.00429  -0.00001   0.00000  -0.00068  -0.00067  -0.00496
   D20       -3.14017   0.00005   0.00000   0.00184   0.00184  -3.13834
   D21        3.13481  -0.00013   0.00000  -0.00523  -0.00522   3.12959
   D22       -0.00107  -0.00007   0.00000  -0.00272  -0.00272  -0.00379
   D23        0.00402   0.00002   0.00000   0.00111   0.00111   0.00513
   D24       -3.13429   0.00012   0.00000   0.00477   0.00476  -3.12952
   D25        3.13990  -0.00004   0.00000  -0.00140  -0.00140   3.13851
   D26        0.00159   0.00006   0.00000   0.00226   0.00226   0.00385
   D27       -0.00048   0.00003   0.00000   0.00160   0.00159   0.00111
   D28       -3.12718   0.00013   0.00000   0.00518   0.00516  -3.12202
   D29        3.13783  -0.00007   0.00000  -0.00205  -0.00205   3.13579
   D30        0.01113   0.00003   0.00000   0.00153   0.00152   0.01265
         Item               Value     Threshold  Converged?
 Maximum Force            0.022220     0.000450     NO 
 RMS     Force            0.004309     0.000300     NO 
 Maximum Displacement     0.122096     0.001800     NO 
 RMS     Displacement     0.029945     0.001200     NO 
 Predicted change in Energy=-2.769197D-03
 GradGradGradGradGradGradGradGradGradGradGradGradGradGradGradGradGradGrad

                          Input orientation:                          
 ---------------------------------------------------------------------
 Center     Atomic      Atomic             Coordinates (Angstroms)
 Number     Number       Type             X           Y           Z
 ---------------------------------------------------------------------
      1          8           0       -2.072253   -1.252898   -0.278662
      2         16           0       -1.596528   -0.000675    0.228344
      3          8           0       -2.072270    1.253999   -0.272598
      4          6           0        0.162484   -0.000227    0.094273
      5          6           0        0.830018   -1.215968    0.051312
      6          6           0        2.214060   -1.208278   -0.031288
      7          6           0        2.899436    0.000319   -0.070848
      8          6           0        2.213383    1.208600   -0.034489
      9          6           0        0.829317    1.215738    0.048294
     10          1           0       -1.745093   -0.004045    1.577827
     11          1           0        0.265312   -2.139546    0.065538
     12          1           0        2.757073   -2.142893   -0.071340
     13          1           0        3.979692    0.000522   -0.138393
     14          1           0        2.755849    2.143420   -0.077073
     15          1           0        0.263980    2.138950    0.060492
 ---------------------------------------------------------------------
                    Distance matrix (angstroms):
                    1          2          3          4          5
     1  O    0.000000
     2  S    1.432282   0.000000
     3  O    2.506904   1.432299   0.000000
     4  C    2.588883   1.764114   2.588783   0.000000
     5  C    2.921202   2.719633   3.824778   1.387615   0.000000
     6  C    4.293678   4.005783   4.949107   2.384139   1.386526
     7  C    5.131416   4.505909   5.131303   2.741929   2.403491
     8  C    4.948259   4.005852   4.292502   2.384120   2.792775
     9  C    3.823634   2.719707   2.919528   1.387571   2.431708
    10  H    2.261244   1.357641   2.261369   2.416567   3.229582
    11  H    2.523654   2.840374   4.134582   2.141982   1.082631
    12  H    4.915024   4.861353   5.907785   3.369026   2.141909
    13  H    6.181971   5.588267   6.181865   3.824292   3.381757
    14  H    5.906453   4.861441   4.913250   3.368995   3.874377
    15  H    4.132511   2.840363   2.520347   2.141850   3.402346
                    6          7          8          9         10
     6  C    0.000000
     7  C    1.389968   0.000000
     8  C    2.416880   1.389940   0.000000
     9  C    2.792794   2.403503   1.386557   0.000000
    10  H    4.440081   4.928468   4.442927   3.233408   0.000000
    11  H    2.162002   3.396503   3.874928   3.402400   3.299865
    12  H    1.081653   2.147936   3.395507   3.874398   5.250135
    13  H    2.142457   1.082365   2.142451   3.381783   5.976503
    14  H    3.395513   2.147915   1.081652   2.141923   5.254405
    15  H    3.874942   3.396560   2.162116   1.082624   3.306223
                   11         12         13         14         15
    11  H    0.000000
    12  H    2.495519   0.000000
    13  H    4.291631   2.468506   0.000000
    14  H    4.956502   4.286318   2.468514   0.000000
    15  H    4.278499   4.956518   4.291729   2.495667   0.000000
 Stoichiometry    C6H6O2S
 Framework group  C1[X(C6H6O2S)]
 Deg. of freedom    39
 Full point group                 C1      NOp   1
 Largest Abelian subgroup         C1      NOp   1
 Largest concise Abelian subgroup C1      NOp   1
                         Standard orientation:                         
 ---------------------------------------------------------------------
 Center     Atomic      Atomic             Coordinates (Angstroms)
 Number     Number       Type             X           Y           Z
 ---------------------------------------------------------------------
      1          8           0       -2.130367   -1.252726   -0.308790
      2         16           0       -1.658499   -0.000643    0.202151
      3          8           0       -2.130393    1.254169   -0.302074
      4          6           0        0.101483   -0.000189    0.081480
      5          6           0        0.769307   -1.215930    0.043289
      6          6           0        2.153939   -1.208241   -0.028765
      7          6           0        2.839613    0.000355   -0.062790
      8          6           0        2.153321    1.208638   -0.031344
      9          6           0        0.768665    1.215777    0.040898
     10          1           0       -1.817337   -0.004361    1.550462
     11          1           0        0.204496   -2.139502    0.052974
     12          1           0        2.697226   -2.142855   -0.064923
     13          1           0        3.920352    0.000557   -0.122106
     14          1           0        2.696109    2.143460   -0.069552
     15          1           0        0.203265    2.138995    0.049029
 ---------------------------------------------------------------------
 Rotational constants (GHZ):           3.4575960           1.0197810           0.8048068
 Standard basis: def2TZVP (5D, 7F)
 There are   366 symmetry adapted cartesian basis functions of A   symmetry.
 There are   321 symmetry adapted basis functions of A   symmetry.
   321 basis functions,   525 primitive gaussians,   366 cartesian basis functions
    37 alpha electrons       37 beta electrons
       nuclear repulsion energy       525.0041344692 Hartrees.
 NAtoms=   15 NActive=   15 NUniq=   15 SFac= 1.00D+00 NAtFMM=   60 NAOKFM=F Big=F
 Integral buffers will be    131072 words long.
 Raffenetti 2 integral format.
 Two-electron integral symmetry is turned on.
 One-electron integrals computed using PRISM.
   1 Symmetry operations used in ECPInt.
 ECPInt:  NShTT=    7875 NPrTT=   25206 LenC2=    7598 LenP2D=   18890.
 LDataN:  DoStor=T MaxTD1= 6 Len=  172
 NBasis=   321 RedAO= T EigKep=  8.76D-06  NBF=   321
 NBsUse=   321 1.00D-06 EigRej= -1.00D+00 NBFU=   321
 Initial guess from the checkpoint file:  "/home/svss/projects/Project-Philicity/GS/hydrocarbon/set-1/GS/mol_29_hc/mol_29_hc.chk"
 B after Tr=     0.000000    0.000000   -0.000000
         Rot=    1.000000    0.000021    0.000881   -0.000004 Ang=   0.10 deg.
 ExpMin= 9.52D-02 ExpMax= 6.07D+04 ExpMxC= 2.07D+03 IAcc=3 IRadAn=         5 AccDes= 0.00D+00
 Harris functional with IExCor= 1009 and IRadAn=       5 diagonalized for initial guess.
 HarFok:  IExCor= 1009 AccDes= 0.00D+00 IRadAn=         5 IDoV= 1 UseB2=F ITyADJ=14
 ICtDFT=  3500011 ScaDFX=  1.000000  1.000000  1.000000  1.000000
 FoFCou: FMM=F IPFlag=           0 FMFlag=      100000 FMFlg1=           0
         NFxFlg=           0 DoJE=T BraDBF=F KetDBF=T FulRan=T
         wScrn=  0.000000 ICntrl=       500 IOpCl=  0 I1Cent=   200000004 NGrid=           0
         NMat0=    1 NMatS0=      1 NMatT0=    0 NMatD0=    1 NMtDS0=    0 NMtDT0=    0
 Petite list used in FoFCou.
 Requested convergence on RMS density matrix=1.00D-08 within 128 cycles.
 Requested convergence on MAX density matrix=1.00D-06.
 Requested convergence on             energy=1.00D-06.
 No special actions if energy rises.
 Integral accuracy reduced to 1.0D-05 until final iterations.
 Initial convergence to 1.0D-05 achieved.  Increase integral accuracy.
 SCF Done:  E(RM062X) =  -780.836488589     A.U. after   12 cycles
            NFock= 12  Conv=0.59D-08     -V/T= 2.0029
   1 Symmetry operations used in ECPInt.
 ECPInt:  NShTT=    7875 NPrTT=   25206 LenC2=    7598 LenP2D=   18890.
 LDataN:  DoStor=T MaxTD1= 7 Len=  274
 Calling FoFJK, ICntrl=      2127 FMM=F ISym2X=0 I1Cent= 0 IOpClX= 0 NMat=1 NMatS=1 NMatT=0.
 ***** Axes restored to original set *****
 -------------------------------------------------------------------
 Center     Atomic                   Forces (Hartrees/Bohr)
 Number     Number              X              Y              Z
 -------------------------------------------------------------------
      1        8          -0.004633342    0.000273814    0.003493673
      2       16           0.010997093    0.000030481   -0.007298912
      3        8          -0.004641125   -0.000303601    0.003487952
      4        6          -0.001924165   -0.000015599    0.001982749
      5        6           0.001103870    0.000658503    0.000146146
      6        6           0.000191217    0.000459119   -0.000170426
      7        6           0.000139593    0.000002552   -0.000075200
      8        6           0.000195360   -0.000465791   -0.000171785
      9        6           0.001099323   -0.000649330    0.000160179
     10        1          -0.003666040    0.000010288   -0.001442866
     11        1           0.000414417    0.000454782   -0.000025270
     12        1           0.000152794    0.000020015   -0.000065931
     13        1          -0.000001822    0.000000862    0.000064925
     14        1           0.000153747   -0.000019556   -0.000062175
     15        1           0.000419078   -0.000456539   -0.000023058
 -------------------------------------------------------------------
 Cartesian Forces:  Max     0.010997093 RMS     0.002447915

 GradGradGradGradGradGradGradGradGradGradGradGradGradGradGradGradGradGrad
 Berny optimization.
 Using GEDIIS/GDIIS optimizer.
 FormGI is forming the generalized inverse of G from B-inverse, IUseBI=4.
 Internal  Forces:  Max     0.008489861 RMS     0.002211229
 Search for a local minimum.
 Step number   2 out of a maximum of   79
 All quantities printed in internal units (Hartrees-Bohrs-Radians)
 Mixed Optimization -- RFO/linear search
 Update second derivatives using D2CorX and points    1    2
 DE= -1.87D-03 DEPred=-2.77D-03 R= 6.76D-01
 TightC=F SS=  1.41D+00  RLast= 1.59D-01 DXNew= 5.0454D-01 4.7706D-01
 Trust test= 6.76D-01 RLast= 1.59D-01 DXMaxT set to 4.77D-01
 ITU=  1  0
 Use linear search instead of GDIIS.
     Eigenvalues ---    0.00624   0.01682   0.02262   0.02267   0.02272
     Eigenvalues ---    0.02273   0.02292   0.02312   0.02319   0.02344
     Eigenvalues ---    0.08949   0.09649   0.15759   0.15997   0.15999
     Eigenvalues ---    0.16000   0.16000   0.16760   0.19148   0.22000
     Eigenvalues ---    0.22000   0.23550   0.24437   0.24999   0.27427
     Eigenvalues ---    0.35170   0.36028   0.36076   0.36089   0.36175
     Eigenvalues ---    0.37050   0.43643   0.43650   0.47912   0.48028
     Eigenvalues ---    0.48390   0.48936   1.04530   1.04555
 RFO step:  Lambda=-7.07788362D-04 EMin= 6.24170815D-03
 Quartic linear search produced a step of -0.24405.
 Iteration  1 RMS(Cart)=  0.01435054 RMS(Int)=  0.00022224
 Iteration  2 RMS(Cart)=  0.00022670 RMS(Int)=  0.00008113
 Iteration  3 RMS(Cart)=  0.00000006 RMS(Int)=  0.00008113
 Variable       Old X    -DE/DX   Delta X   Delta X   Delta X     New X
                                 (Linear)    (Quad)   (Total)
    R1        2.70662   0.00006  -0.00023   0.00041   0.00017   2.70679
    R2        2.70665   0.00006  -0.00022   0.00038   0.00016   2.70681
    R3        3.33369   0.00180   0.00770  -0.00755   0.00015   3.33384
    R4        2.56557  -0.00103   0.02464  -0.04429  -0.01965   2.54592
    R5        2.62221   0.00046  -0.00342   0.00616   0.00274   2.62495
    R6        2.62213   0.00047  -0.00342   0.00615   0.00274   2.62487
    R7        2.62015   0.00042  -0.00055   0.00153   0.00098   2.62114
    R8        2.04588  -0.00060  -0.00191   0.00178  -0.00013   2.04575
    R9        2.62666  -0.00088  -0.00140   0.00075  -0.00065   2.62601
   R10        2.04403   0.00006  -0.00112   0.00192   0.00080   2.04482
   R11        2.62661  -0.00089  -0.00139   0.00073  -0.00066   2.62594
   R12        2.04537  -0.00001  -0.00123   0.00195   0.00072   2.04609
   R13        2.62021   0.00043  -0.00055   0.00153   0.00098   2.62120
   R14        2.04403   0.00006  -0.00112   0.00192   0.00080   2.04482
   R15        2.04586  -0.00061  -0.00189   0.00174  -0.00015   2.04572
    A1        2.13144  -0.00564  -0.00967   0.01248   0.00241   2.13385
    A2        1.88021   0.00846   0.01240   0.01219   0.02437   1.90458
    A3        1.88951  -0.00679  -0.01044  -0.02070  -0.03104   1.85846
    A4        1.88009   0.00849   0.01240   0.01228   0.02445   1.90454
    A5        1.88964  -0.00679  -0.01044  -0.02073  -0.03106   1.85858
    A6        1.75652   0.00448   0.00735   0.00363   0.01106   1.76758
    A7        2.07351   0.00118   0.00063   0.00251   0.00311   2.07662
    A8        2.07365   0.00118   0.00067   0.00244   0.00309   2.07674
    A9        2.13598  -0.00235  -0.00134  -0.00482  -0.00616   2.12982
   A10        2.06825   0.00115   0.00151   0.00142   0.00293   2.07118
   A11        2.08988  -0.00046  -0.00317   0.00391   0.00074   2.09062
   A12        2.12490  -0.00070   0.00166  -0.00542  -0.00376   2.12114
   A13        2.09292   0.00032  -0.00053   0.00169   0.00116   2.09408
   A14        2.09270  -0.00001   0.00077  -0.00101  -0.00024   2.09246
   A15        2.09754  -0.00031  -0.00024  -0.00071  -0.00094   2.09660
   A16        2.10801  -0.00059  -0.00063  -0.00141  -0.00205   2.10597
   A17        2.08756   0.00030   0.00031   0.00071   0.00103   2.08858
   A18        2.08759   0.00030   0.00032   0.00069   0.00101   2.08860
   A19        2.09293   0.00033  -0.00053   0.00171   0.00118   2.09411
   A20        2.09755  -0.00031  -0.00023  -0.00072  -0.00095   2.09660
   A21        2.09268  -0.00001   0.00077  -0.00101  -0.00024   2.09244
   A22        2.06824   0.00115   0.00152   0.00140   0.00292   2.07116
   A23        2.08974  -0.00045  -0.00316   0.00392   0.00075   2.09049
   A24        2.12506  -0.00070   0.00165  -0.00541  -0.00377   2.12129
    D1       -0.41480   0.00274   0.00231   0.02537   0.02790  -0.38691
    D2        2.73726   0.00263   0.00494   0.01187   0.01698   2.75423
    D3       -2.74462  -0.00261  -0.00519  -0.00889  -0.01426  -2.75888
    D4        0.40744  -0.00272  -0.00257  -0.02239  -0.02518   0.38227
    D5        1.56183   0.00006  -0.00144   0.00824   0.00682   1.56864
    D6       -1.56930  -0.00005   0.00118  -0.00526  -0.00410  -1.57340
    D7       -3.12282  -0.00024   0.00139  -0.01256  -0.01115  -3.13397
    D8        0.03695  -0.00012   0.00062  -0.00682  -0.00618   0.03077
    D9        0.00791  -0.00010  -0.00130   0.00149   0.00017   0.00808
   D10       -3.11550   0.00001  -0.00208   0.00723   0.00514  -3.11036
   D11        3.12298   0.00024  -0.00150   0.01283   0.01131   3.13430
   D12       -0.03668   0.00012  -0.00061   0.00683   0.00620  -0.03048
   D13       -0.00775   0.00010   0.00120  -0.00123  -0.00002  -0.00776
   D14        3.11578  -0.00001   0.00209  -0.00722  -0.00513   3.11065
   D15       -0.00144   0.00005   0.00060  -0.00034   0.00026  -0.00118
   D16       -3.13601   0.00007  -0.00051   0.00348   0.00298  -3.13303
   D17        3.12159  -0.00007   0.00135  -0.00610  -0.00475   3.11684
   D18       -0.01298  -0.00005   0.00024  -0.00228  -0.00203  -0.01501
   D19       -0.00496  -0.00001   0.00016  -0.00106  -0.00089  -0.00585
   D20       -3.13834  -0.00002  -0.00045   0.00067   0.00022  -3.13812
   D21        3.12959  -0.00003   0.00127  -0.00489  -0.00361   3.12597
   D22       -0.00379  -0.00004   0.00066  -0.00317  -0.00251  -0.00630
   D23        0.00513   0.00001  -0.00027   0.00132   0.00105   0.00618
   D24       -3.12952   0.00003  -0.00116   0.00453   0.00336  -3.12616
   D25        3.13851   0.00002   0.00034  -0.00040  -0.00005   3.13845
   D26        0.00385   0.00004  -0.00055   0.00281   0.00225   0.00610
   D27        0.00111  -0.00005  -0.00039  -0.00018  -0.00058   0.00054
   D28       -3.12202   0.00007  -0.00126   0.00584   0.00458  -3.11745
   D29        3.13579  -0.00007   0.00050  -0.00338  -0.00288   3.13291
   D30        0.01265   0.00005  -0.00037   0.00265   0.00227   0.01492
         Item               Value     Threshold  Converged?
 Maximum Force            0.008490     0.000450     NO 
 RMS     Force            0.002211     0.000300     NO 
 Maximum Displacement     0.049507     0.001800     NO 
 RMS     Displacement     0.014267     0.001200     NO 
 Predicted change in Energy=-6.034480D-04
 GradGradGradGradGradGradGradGradGradGradGradGradGradGradGradGradGradGrad

                          Input orientation:                          
 ---------------------------------------------------------------------
 Center     Atomic      Atomic             Coordinates (Angstroms)
 Number     Number       Type             X           Y           Z
 ---------------------------------------------------------------------
      1          8           0       -2.098101   -1.254481   -0.259666
      2         16           0       -1.595810   -0.000687    0.217195
      3          8           0       -2.098468    1.254242   -0.256313
      4          6           0        0.164360   -0.000235    0.098105
      5          6           0        0.836243   -1.215178    0.053583
      6          6           0        2.220697   -1.207287   -0.030798
      7          6           0        2.907129    0.000307   -0.070535
      8          6           0        2.220046    1.207580   -0.033552
      9          6           0        0.835580    1.214936    0.051208
     10          1           0       -1.769428   -0.002585    1.553201
     11          1           0        0.274892   -2.140778    0.063306
     12          1           0        2.763587   -2.142290   -0.074682
     13          1           0        3.987665    0.000519   -0.139674
     14          1           0        2.762429    2.142783   -0.079389
     15          1           0        0.273639    2.140172    0.059400
 ---------------------------------------------------------------------
                    Distance matrix (angstroms):
                    1          2          3          4          5
     1  O    0.000000
     2  S    1.432373   0.000000
     3  O    2.508725   1.432383   0.000000
     4  C    2.611487   1.764194   2.611458   0.000000
     5  C    2.951279   2.723351   3.847934   1.389063   0.000000
     6  C    4.325115   4.010375   4.976461   2.387910   1.387045
     7  C    5.163584   4.512123   5.163610   2.747949   2.404449
     8  C    4.975868   4.010429   4.324507   2.387885   2.791462
     9  C    3.847226   2.723407   2.950381   1.389020   2.430115
    10  H    2.227500   1.347241   2.227605   2.420092   3.241721
    11  H    2.553611   2.846611   4.154654   2.143677   1.082564
    12  H    4.945547   4.865798   5.933716   3.372571   2.142578
    13  H    6.214980   5.594868   6.215017   3.830692   3.383301
    14  H    5.932845   4.865868   4.944605   3.372535   3.873471
    15  H    4.153386   2.846579   2.551751   2.143544   3.402195
                    6          7          8          9         10
     6  C    0.000000
     7  C    1.389623   0.000000
     8  C    2.414869   1.389590   0.000000
     9  C    2.791495   2.404468   1.387078   0.000000
    10  H    4.458863   4.950426   4.460738   3.244134   0.000000
    11  H    2.160189   3.395708   3.873565   3.402254   3.312235
    12  H    1.082074   2.147403   3.393929   3.873503   5.270347
    13  H    2.143088   1.082746   2.143067   3.383325   6.000830
    14  H    3.393937   2.147376   1.082075   2.142593   5.273109
    15  H    3.873584   3.395759   2.160294   1.082546   3.316168
                   11         12         13         14         15
    11  H    0.000000
    12  H    2.492518   0.000000
    13  H    4.290808   2.468648   0.000000
    14  H    4.955512   4.285076   2.468631   0.000000
    15  H    4.280952   4.955532   4.290890   2.492658   0.000000
 Stoichiometry    C6H6O2S
 Framework group  C1[X(C6H6O2S)]
 Deg. of freedom    39
 Full point group                 C1      NOp   1
 Largest Abelian subgroup         C1      NOp   1
 Largest concise Abelian subgroup C1      NOp   1
                         Standard orientation:                         
 ---------------------------------------------------------------------
 Center     Atomic      Atomic             Coordinates (Angstroms)
 Number     Number       Type             X           Y           Z
 ---------------------------------------------------------------------
      1          8           0       -2.153919   -1.253945   -0.293061
      2         16           0       -1.655393   -0.000387    0.188349
      3          8           0       -2.154044    1.254776   -0.288762
      4          6           0        0.105688   -0.000084    0.083597
      5          6           0        0.777781   -1.215084    0.044087
      6          6           0        2.162877   -1.207315   -0.029014
      7          6           0        2.849740    0.000219   -0.062702
      8          6           0        2.162508    1.207554   -0.030859
      9          6           0        0.777398    1.215031    0.042627
     10          1           0       -1.839886   -0.002771    1.522896
     11          1           0        0.216270   -2.140626    0.048888
     12          1           0        2.706006   -2.142360   -0.068828
     13          1           0        3.930803    0.000338   -0.123039
     14          1           0        2.705346    2.142714   -0.071923
     15          1           0        0.215508    2.140325    0.046593
 ---------------------------------------------------------------------
 Rotational constants (GHZ):           3.4707352           1.0103839           0.7983106
 Standard basis: def2TZVP (5D, 7F)
 There are   366 symmetry adapted cartesian basis functions of A   symmetry.
 There are   321 symmetry adapted basis functions of A   symmetry.
   321 basis functions,   525 primitive gaussians,   366 cartesian basis functions
    37 alpha electrons       37 beta electrons
       nuclear repulsion energy       524.1824558581 Hartrees.
 NAtoms=   15 NActive=   15 NUniq=   15 SFac= 1.00D+00 NAtFMM=   60 NAOKFM=F Big=F
 Integral buffers will be    131072 words long.
 Raffenetti 2 integral format.
 Two-electron integral symmetry is turned on.
 One-electron integrals computed using PRISM.
   1 Symmetry operations used in ECPInt.
 ECPInt:  NShTT=    7875 NPrTT=   25206 LenC2=    7586 LenP2D=   18866.
 LDataN:  DoStor=T MaxTD1= 6 Len=  172
 NBasis=   321 RedAO= T EigKep=  8.78D-06  NBF=   321
 NBsUse=   321 1.00D-06 EigRej= -1.00D+00 NBFU=   321
 Initial guess from the checkpoint file:  "/home/svss/projects/Project-Philicity/GS/hydrocarbon/set-1/GS/mol_29_hc/mol_29_hc.chk"
 B after Tr=    -0.000000   -0.000000   -0.000000
         Rot=    1.000000    0.000060   -0.000321    0.000013 Ang=   0.04 deg.
 ExpMin= 9.52D-02 ExpMax= 6.07D+04 ExpMxC= 2.07D+03 IAcc=3 IRadAn=         5 AccDes= 0.00D+00
 Harris functional with IExCor= 1009 and IRadAn=       5 diagonalized for initial guess.
 HarFok:  IExCor= 1009 AccDes= 0.00D+00 IRadAn=         5 IDoV= 1 UseB2=F ITyADJ=14
 ICtDFT=  3500011 ScaDFX=  1.000000  1.000000  1.000000  1.000000
 FoFCou: FMM=F IPFlag=           0 FMFlag=      100000 FMFlg1=           0
         NFxFlg=           0 DoJE=T BraDBF=F KetDBF=T FulRan=T
         wScrn=  0.000000 ICntrl=       500 IOpCl=  0 I1Cent=   200000004 NGrid=           0
         NMat0=    1 NMatS0=      1 NMatT0=    0 NMatD0=    1 NMtDS0=    0 NMtDT0=    0
 Petite list used in FoFCou.
 Requested convergence on RMS density matrix=1.00D-08 within 128 cycles.
 Requested convergence on MAX density matrix=1.00D-06.
 Requested convergence on             energy=1.00D-06.
 No special actions if energy rises.
 Integral accuracy reduced to 1.0D-05 until final iterations.
 Initial convergence to 1.0D-05 achieved.  Increase integral accuracy.
 SCF Done:  E(RM062X) =  -780.836891725     A.U. after   11 cycles
            NFock= 11  Conv=0.95D-08     -V/T= 2.0029
   1 Symmetry operations used in ECPInt.
 ECPInt:  NShTT=    7875 NPrTT=   25206 LenC2=    7586 LenP2D=   18866.
 LDataN:  DoStor=T MaxTD1= 7 Len=  274
 Calling FoFJK, ICntrl=      2127 FMM=F ISym2X=0 I1Cent= 0 IOpClX= 0 NMat=1 NMatS=1 NMatT=0.
 ***** Axes restored to original set *****
 -------------------------------------------------------------------
 Center     Atomic                   Forces (Hartrees/Bohr)
 Number     Number              X              Y              Z
 -------------------------------------------------------------------
      1        8           0.000421345    0.000162919   -0.001720878
      2       16          -0.000004008    0.000007370    0.000762386
      3        8           0.000425494   -0.000170527   -0.001718145
      4        6          -0.000326157   -0.000014059   -0.001197111
      5        6           0.000274439    0.000724647   -0.000243134
      6        6          -0.000141438    0.000124584    0.000075341
      7        6           0.000019414   -0.000004676   -0.000046992
      8        6          -0.000145328   -0.000112808    0.000116537
      9        6           0.000281103   -0.000730991   -0.000251637
     10        1          -0.000356643    0.000001360    0.003884977
     11        1           0.000085113    0.000443751    0.000088952
     12        1          -0.000159447    0.000198134    0.000080510
     13        1          -0.000302441    0.000000189    0.000009907
     14        1          -0.000159123   -0.000198246    0.000073641
     15        1           0.000087678   -0.000431646    0.000085645
 -------------------------------------------------------------------
 Cartesian Forces:  Max     0.003884977 RMS     0.000756343

 GradGradGradGradGradGradGradGradGradGradGradGradGradGradGradGradGradGrad
 Berny optimization.
 Using GEDIIS/GDIIS optimizer.
 FormGI is forming the generalized inverse of G from B-inverse, IUseBI=4.
 Internal  Forces:  Max     0.003898877 RMS     0.000722355
 Search for a local minimum.
 Step number   3 out of a maximum of   79
 All quantities printed in internal units (Hartrees-Bohrs-Radians)
 Mixed Optimization -- En-DIIS/RFO-DIIS
 Update second derivatives using D2CorX and points    1    2    3
 DE= -4.03D-04 DEPred=-6.03D-04 R= 6.68D-01
 TightC=F SS=  1.41D+00  RLast= 7.89D-02 DXNew= 8.0231D-01 2.3671D-01
 Trust test= 6.68D-01 RLast= 7.89D-02 DXMaxT set to 4.77D-01
 ITU=  1  1  0
 Use linear search instead of GDIIS.
     Eigenvalues ---    0.00624   0.01672   0.02262   0.02267   0.02272
     Eigenvalues ---    0.02274   0.02292   0.02317   0.02319   0.02347
     Eigenvalues ---    0.08854   0.11382   0.15865   0.15995   0.15999
     Eigenvalues ---    0.16000   0.16002   0.17133   0.21134   0.22000
     Eigenvalues ---    0.22034   0.24059   0.24402   0.25000   0.27256
     Eigenvalues ---    0.36029   0.36075   0.36089   0.36174   0.36186
     Eigenvalues ---    0.38631   0.43629   0.43690   0.47912   0.48255
     Eigenvalues ---    0.48607   0.48935   1.04522   1.04553
 RFO step:  Lambda=-8.11752398D-05 EMin= 6.24089489D-03
 Quartic linear search produced a step of -0.23527.
 Iteration  1 RMS(Cart)=  0.00426561 RMS(Int)=  0.00003101
 Iteration  2 RMS(Cart)=  0.00001905 RMS(Int)=  0.00002680
 Iteration  3 RMS(Cart)=  0.00000000 RMS(Int)=  0.00002680
 Variable       Old X    -DE/DX   Delta X   Delta X   Delta X     New X
                                 (Linear)    (Quad)   (Total)
    R1        2.70679   0.00028  -0.00004   0.00019   0.00015   2.70694
    R2        2.70681   0.00027  -0.00004   0.00018   0.00014   2.70695
    R3        3.33384  -0.00040  -0.00004   0.00035   0.00032   3.33416
    R4        2.54592   0.00390   0.00462   0.01131   0.01593   2.56185
    R5        2.62495  -0.00094  -0.00064  -0.00115  -0.00180   2.62315
    R6        2.62487  -0.00093  -0.00064  -0.00114  -0.00178   2.62309
    R7        2.62114  -0.00045  -0.00023  -0.00045  -0.00068   2.62045
    R8        2.04575  -0.00042   0.00003  -0.00111  -0.00108   2.04467
    R9        2.62601  -0.00047   0.00015  -0.00097  -0.00082   2.62519
   R10        2.04482  -0.00025  -0.00019  -0.00044  -0.00063   2.04419
   R11        2.62594  -0.00046   0.00016  -0.00097  -0.00081   2.62513
   R12        2.04609  -0.00030  -0.00017  -0.00057  -0.00074   2.04536
   R13        2.62120  -0.00046  -0.00023  -0.00046  -0.00069   2.62051
   R14        2.04482  -0.00025  -0.00019  -0.00044  -0.00063   2.04419
   R15        2.04572  -0.00041   0.00003  -0.00109  -0.00106   2.04466
    A1        2.13385  -0.00018  -0.00057  -0.00770  -0.00813   2.12572
    A2        1.90458  -0.00147  -0.00573   0.00127  -0.00436   1.90022
    A3        1.85846   0.00140   0.00730  -0.00067   0.00666   1.86513
    A4        1.90454  -0.00147  -0.00575   0.00129  -0.00437   1.90017
    A5        1.85858   0.00140   0.00731  -0.00072   0.00662   1.86520
    A6        1.76758   0.00076  -0.00260   0.00983   0.00725   1.77483
    A7        2.07662   0.00016  -0.00073   0.00142   0.00069   2.07731
    A8        2.07674   0.00015  -0.00073   0.00140   0.00067   2.07741
    A9        2.12982  -0.00031   0.00145  -0.00282  -0.00137   2.12845
   A10        2.07118   0.00033  -0.00069   0.00185   0.00116   2.07234
   A11        2.09062  -0.00033  -0.00017  -0.00147  -0.00164   2.08898
   A12        2.12114   0.00000   0.00089  -0.00033   0.00055   2.12169
   A13        2.09408  -0.00004  -0.00027   0.00016  -0.00012   2.09397
   A14        2.09246  -0.00002   0.00006  -0.00007  -0.00001   2.09245
   A15        2.09660   0.00006   0.00022  -0.00008   0.00014   2.09674
   A16        2.10597  -0.00025   0.00048  -0.00119  -0.00071   2.10526
   A17        2.08858   0.00013  -0.00024   0.00060   0.00036   2.08894
   A18        2.08860   0.00013  -0.00024   0.00060   0.00036   2.08896
   A19        2.09411  -0.00005  -0.00028   0.00015  -0.00013   2.09398
   A20        2.09660   0.00007   0.00022  -0.00008   0.00015   2.09675
   A21        2.09244  -0.00002   0.00006  -0.00006  -0.00001   2.09243
   A22        2.07116   0.00033  -0.00069   0.00186   0.00117   2.07233
   A23        2.09049  -0.00032  -0.00018  -0.00144  -0.00161   2.08888
   A24        2.12129  -0.00001   0.00089  -0.00037   0.00051   2.12180
    D1       -0.38691  -0.00142  -0.00656  -0.00480  -0.01141  -0.39832
    D2        2.75423  -0.00135  -0.00399  -0.00271  -0.00674   2.74750
    D3       -2.75888   0.00135   0.00335   0.00350   0.00689  -2.75199
    D4        0.38227   0.00143   0.00592   0.00559   0.01156   0.39383
    D5        1.56864  -0.00003  -0.00160  -0.00063  -0.00224   1.56641
    D6       -1.57340   0.00004   0.00097   0.00147   0.00244  -1.57096
    D7       -3.13397   0.00013   0.00262   0.00252   0.00514  -3.12884
    D8        0.03077   0.00002   0.00145   0.00024   0.00169   0.03246
    D9        0.00808   0.00005  -0.00004   0.00036   0.00032   0.00840
   D10       -3.11036  -0.00006  -0.00121  -0.00192  -0.00312  -3.11349
   D11        3.13430  -0.00014  -0.00266  -0.00271  -0.00537   3.12892
   D12       -0.03048  -0.00002  -0.00146  -0.00028  -0.00173  -0.03221
   D13       -0.00776  -0.00006   0.00000  -0.00056  -0.00056  -0.00832
   D14        3.11065   0.00006   0.00121   0.00188   0.00308   3.11374
   D15       -0.00118  -0.00003  -0.00006  -0.00041  -0.00047  -0.00166
   D16       -3.13303  -0.00007  -0.00070  -0.00150  -0.00220  -3.13523
   D17        3.11684   0.00008   0.00112   0.00189   0.00301   3.11985
   D18       -0.01501   0.00004   0.00048   0.00080   0.00128  -0.01373
   D19       -0.00585   0.00002   0.00021   0.00067   0.00088  -0.00497
   D20       -3.13812  -0.00001  -0.00005  -0.00063  -0.00068  -3.13880
   D21        3.12597   0.00006   0.00085   0.00176   0.00261   3.12858
   D22       -0.00630   0.00002   0.00059   0.00046   0.00105  -0.00524
   D23        0.00618  -0.00003  -0.00025  -0.00087  -0.00112   0.00506
   D24       -3.12616  -0.00006  -0.00079  -0.00161  -0.00240  -3.12857
   D25        3.13845   0.00001   0.00001   0.00043   0.00044   3.13889
   D26        0.00610  -0.00002  -0.00053  -0.00032  -0.00084   0.00526
   D27        0.00054   0.00005   0.00014   0.00081   0.00095   0.00148
   D28       -3.11745  -0.00007  -0.00108  -0.00166  -0.00274  -3.12018
   D29        3.13291   0.00007   0.00068   0.00155   0.00223   3.13513
   D30        0.01492  -0.00004  -0.00053  -0.00092  -0.00146   0.01346
         Item               Value     Threshold  Converged?
 Maximum Force            0.003899     0.000450     NO 
 RMS     Force            0.000722     0.000300     NO 
 Maximum Displacement     0.023716     0.001800     NO 
 RMS     Displacement     0.004270     0.001200     NO 
 Predicted change in Energy=-8.109716D-05
 GradGradGradGradGradGradGradGradGradGradGradGradGradGradGradGradGradGrad

                          Input orientation:                          
 ---------------------------------------------------------------------
 Center     Atomic      Atomic             Coordinates (Angstroms)
 Number     Number       Type             X           Y           Z
 ---------------------------------------------------------------------
      1          8           0       -2.094811   -1.251769   -0.265443
      2         16           0       -1.595642   -0.000700    0.221971
      3          8           0       -2.095161    1.251446   -0.262329
      4          6           0        0.164213   -0.000258    0.095944
      5          6           0        0.836485   -1.213904    0.051601
      6          6           0        2.220627   -1.206667   -0.031994
      7          6           0        2.907268    0.000309   -0.071761
      8          6           0        2.219980    1.206961   -0.034499
      9          6           0        0.835812    1.213631    0.049189
     10          1           0       -1.774803   -0.002452    1.565751
     11          1           0        0.274668   -2.138520    0.064145
     12          1           0        2.763039   -2.141664   -0.073610
     13          1           0        3.987493    0.000528   -0.139638
     14          1           0        2.761873    2.142172   -0.078071
     15          1           0        0.273418    2.137908    0.060134
 ---------------------------------------------------------------------
                    Distance matrix (angstroms):
                    1          2          3          4          5
     1  O    0.000000
     2  S    1.432451   0.000000
     3  O    2.503217   1.432458   0.000000
     4  C    2.607694   1.764362   2.607660   0.000000
     5  C    2.948635   2.723258   3.843312   1.388111   0.000000
     6  C    4.321984   4.010333   4.972062   2.387599   1.386683
     7  C    5.160040   4.512481   5.160034   2.748177   2.403679
     8  C    4.971531   4.010387   4.321380   2.387588   2.789634
     9  C    3.842622   2.723312   2.947724   1.388078   2.427536
    10  H    2.239748   1.355672   2.239814   2.433130   3.252551
    11  H    2.551350   2.844863   4.149041   2.141349   1.081994
    12  H    4.942411   4.865100   5.928821   3.371686   2.141968
    13  H    6.211159   5.594834   6.211161   3.830532   3.382347
    14  H    5.928012   4.865168   4.941469   3.371665   3.871327
    15  H    4.147821   2.844859   2.549503   2.141252   3.398787
                    6          7          8          9         10
     6  C    0.000000
     7  C    1.389190   0.000000
     8  C    2.413630   1.389159   0.000000
     9  C    2.789650   2.403687   1.386712   0.000000
    10  H    4.468376   4.960166   4.470098   3.254863   0.000000
    11  H    2.159711   3.394649   3.871203   3.398827   3.319328
    12  H    1.081741   2.146824   3.392600   3.871342   5.277854
    13  H    2.142597   1.082355   2.142577   3.382361   6.009361
    14  H    3.392608   2.146801   1.081741   2.141983   5.280435
    15  H    3.871213   3.394686   2.159796   1.081986   3.323136
                   11         12         13         14         15
    11  H    0.000000
    12  H    2.492183   0.000000
    13  H    4.289770   2.468326   0.000000
    14  H    4.952851   4.283839   2.468314   0.000000
    15  H    4.276430   4.952861   4.289831   2.492293   0.000000
 Stoichiometry    C6H6O2S
 Framework group  C1[X(C6H6O2S)]
 Deg. of freedom    39
 Full point group                 C1      NOp   1
 Largest Abelian subgroup         C1      NOp   1
 Largest concise Abelian subgroup C1      NOp   1
                         Standard orientation:                         
 ---------------------------------------------------------------------
 Center     Atomic      Atomic             Coordinates (Angstroms)
 Number     Number       Type             X           Y           Z
 ---------------------------------------------------------------------
      1          8           0       -2.151242   -1.251196   -0.298305
      2         16           0       -1.655976   -0.000374    0.193702
      3          8           0       -2.151326    1.252017   -0.294232
      4          6           0        0.104861   -0.000094    0.082234
      5          6           0        0.777336   -1.213803    0.042985
      6          6           0        2.162123   -1.206700   -0.029156
      7          6           0        2.849210    0.000209   -0.062780
      8          6           0        2.161778    1.206929   -0.030739
      9          6           0        0.776966    1.213733    0.041501
     10          1           0       -1.846244   -0.002620    1.535953
     11          1           0        0.215327   -2.138357    0.050527
     12          1           0        2.704752   -2.141746   -0.066645
     13          1           0        3.929959    0.000325   -0.121721
     14          1           0        2.704121    2.142092   -0.069468
     15          1           0        0.214608    2.138072    0.048150
 ---------------------------------------------------------------------
 Rotational constants (GHZ):           3.4744729           1.0108634           0.7993131
 Standard basis: def2TZVP (5D, 7F)
 There are   366 symmetry adapted cartesian basis functions of A   symmetry.
 There are   321 symmetry adapted basis functions of A   symmetry.
   321 basis functions,   525 primitive gaussians,   366 cartesian basis functions
    37 alpha electrons       37 beta electrons
       nuclear repulsion energy       524.3042886464 Hartrees.
 NAtoms=   15 NActive=   15 NUniq=   15 SFac= 1.00D+00 NAtFMM=   60 NAOKFM=F Big=F
 Integral buffers will be    131072 words long.
 Raffenetti 2 integral format.
 Two-electron integral symmetry is turned on.
 One-electron integrals computed using PRISM.
   1 Symmetry operations used in ECPInt.
 ECPInt:  NShTT=    7875 NPrTT=   25206 LenC2=    7588 LenP2D=   18872.
 LDataN:  DoStor=T MaxTD1= 6 Len=  172
 NBasis=   321 RedAO= T EigKep=  8.72D-06  NBF=   321
 NBsUse=   321 1.00D-06 EigRej= -1.00D+00 NBFU=   321
 Initial guess from the checkpoint file:  "/home/svss/projects/Project-Philicity/GS/hydrocarbon/set-1/GS/mol_29_hc/mol_29_hc.chk"
 B after Tr=     0.000000    0.000000   -0.000000
         Rot=    1.000000    0.000003    0.000090    0.000003 Ang=   0.01 deg.
 ExpMin= 9.52D-02 ExpMax= 6.07D+04 ExpMxC= 2.07D+03 IAcc=3 IRadAn=         5 AccDes= 0.00D+00
 Harris functional with IExCor= 1009 and IRadAn=       5 diagonalized for initial guess.
 HarFok:  IExCor= 1009 AccDes= 0.00D+00 IRadAn=         5 IDoV= 1 UseB2=F ITyADJ=14
 ICtDFT=  3500011 ScaDFX=  1.000000  1.000000  1.000000  1.000000
 FoFCou: FMM=F IPFlag=           0 FMFlag=      100000 FMFlg1=           0
         NFxFlg=           0 DoJE=T BraDBF=F KetDBF=T FulRan=T
[...]
 ! D27   D(7,8,9,4)              0.071          -DE/DX =    0.0                 !
 ! D28   D(7,8,9,15)          -178.7494         -DE/DX =    0.0                 !
 ! D29   D(14,8,9,4)           179.6092         -DE/DX =    0.0                 !
 ! D30   D(14,8,9,15)            0.7889         -DE/DX =    0.0                 !
 --------------------------------------------------------------------------------
 GradGradGradGradGradGradGradGradGradGradGradGradGradGradGradGradGradGrad


 ----------------------------------------------------------------------

 Electric dipole moment (input orientation):
 (Debye = 10**-18 statcoulomb cm , SI units = C m)
                  (au)            (Debye)         (10**-30 SI)
   Tot        0.196712D+01      0.499993D+01      0.166780D+02
   x          0.178548D+01      0.453823D+01      0.151379D+02
   y         -0.231052D-03     -0.587275D-03     -0.195894D-02
   z          0.825617D+00      0.209851D+01      0.699987D+01

 Dipole polarizability, Alpha (input orientation).
 (esu units = cm**3 , SI units = C**2 m**2 J**-1)
 Alpha(0;0):
               (au)            (10**-24 esu)      (10**-40 SI)
   iso        0.881157D+02      0.130574D+02      0.145283D+02
   aniso      0.521171D+02      0.772295D+01      0.859294D+01
   xx         0.114094D+03      0.169070D+02      0.188115D+02
   yx         0.344355D-02      0.510282D-03      0.567765D-03
   yy         0.949006D+02      0.140628D+02      0.156470D+02
   zx        -0.286839D+01     -0.425051D+00     -0.472933D+00
   zy        -0.295569D-01     -0.437988D-02     -0.487328D-02
   zz         0.553524D+02      0.820238D+01      0.912638D+01

 ----------------------------------------------------------------------

 Dipole orientation:
     8         -1.20534263         -2.36776271         -3.80114509
    16         -1.64400541         -0.00152536         -2.56151614
     8         -1.20855792          2.36541629         -3.80095167
     6         -0.03692732         -0.00048783          0.35808540
     6          0.57281405         -2.29346692          1.47654359
     6          1.81585118         -2.27986135          3.78304590
     6          2.42932507          0.00097158          4.92896843
     6          1.81948769          2.28100956          3.77963778
     6          0.57628954          2.29315163          1.47316227
     1         -4.09020278         -0.00331067         -1.80146392
     1          0.10570508         -4.04093281          0.52328024
     1          2.31811632         -4.04702208          4.67932198
     1          3.40382848          0.00153753          6.72712649
     1          2.32457394          4.04872349          4.67323672
     1          0.11147626          4.03984191          0.51738052

 Electric dipole moment (dipole orientation):
 (Debye = 10**-18 statcoulomb cm , SI units = C m)
                  (au)            (Debye)         (10**-30 SI)
   Tot        0.196712D+01      0.499993D+01      0.166780D+02
   x          0.000000D+00      0.000000D+00      0.000000D+00
   y          0.000000D+00      0.000000D+00      0.000000D+00
   z          0.196712D+01      0.499993D+01      0.166780D+02

 Dipole polarizability, Alpha (dipole orientation).
 (esu units = cm**3 , SI units = C**2 m**2 J**-1)
 Alpha(0;0):
               (au)            (10**-24 esu)      (10**-40 SI)
   iso        0.881157D+02      0.130574D+02      0.145283D+02
   aniso      0.521171D+02      0.772295D+01      0.859294D+01
   xx         0.678855D+02      0.100596D+02      0.111928D+02
   yx         0.331482D-01      0.491205D-02      0.546539D-02
   yy         0.949006D+02      0.140628D+02      0.156470D+02
   zx         0.242355D+02      0.359133D+01      0.399589D+01
   zy        -0.103173D-01     -0.152887D-02     -0.170110D-02
   zz         0.101561D+03      0.150498D+02      0.167451D+02

 ----------------------------------------------------------------------
 Unable to Open any file for archive entry.
 1\1\GINC-NODE12\Freq\RM062X\def2TZVP\C6H6O2S1\SVSS\20-Jun-2022\0\\#N G
 eom=AllCheck Guess=TCheck SCRF=Check GenChk RM062X/def2TZVP Freq\\conv
 erted from /home/svss/projects/Project-Philicity/GS/hydrocarbon/set-1/
 GS/mol_29_hc/mol_29_hc_cregen_best.xyz\\0,1\O,-2.0935383508,-1.2527776
 908,-0.2654393983\S,-1.5954618141,-0.0007133009,0.220724262\O,-2.09397
 14801,1.2519126097,-0.2635579028\C,0.1637913616,-0.0002818721,0.097267
 3152\C,0.8363332472,-1.213719427,0.0526676449\C,2.2202542136,-1.206613
 6354,-0.0321042607\C,2.9069983105,0.0003043107,-0.0721125965\C,2.21960
 61559,1.2068956411,-0.0343243787\C,0.8356633236,1.2134149092,0.0505324
 186\H,-1.7736991333,-0.001802496,1.564471026\H,0.2746545955,-2.1383978
 551,0.0651977766\H,2.7622296756,-2.1417905635,-0.0743956559\H,3.987113
 3244,0.0005307579,-0.1408083215\H,2.7610627938,2.1422940874,-0.0783456
 718\H,0.2734237765,2.1377645247,0.0616177428\\Version=AS64L-G16RevC.01
 \State=1-A\HF=-780.8369691\RMSD=1.656e-09\RMSF=5.219e-05\ZeroPoint=0.1
 11893\Thermal=0.1193159\ETot=-780.7176532\HTot=-780.716709\GTot=-780.7
 581349\Dipole=1.7854781,-0.0002311,0.8256171\DipoleDeriv=-0.9314478,-0
 .2089851,-0.068511,-0.3873929,-0.9412419,-0.2075916,-0.1131164,-0.1537
 959,-0.5863516,2.5780539,0.0001029,0.0915228,-0.0000095,1.8847671,0.00
 06935,0.1817428,0.0006856,1.3281331,-0.9316218,0.2090945,-0.0682984,0.
 3875021,-0.9415313,0.2068696,-0.1126809,0.1530597,-0.5857323,-0.529144
 6,-0.0000963,0.016209,-0.0000147,-0.1337169,-0.0000672,-0.0157455,-0.0
 000808,-0.1685625,-0.0190126,0.1548976,0.0080234,-0.1343997,-0.0261588
 ,0.0113404,0.0186221,0.010242,-0.07265,-0.1114657,-0.1855596,-0.005288
 1,-0.0857782,0.0158864,0.0078392,-0.0015621,0.0180455,-0.1189022,0.117
 9041,0.0000084,-0.0142653,0.0000671,0.0578517,-0.0001474,-0.0121881,-0
 .0001395,-0.1009102,-0.1115262,0.1855364,-0.0056205,0.0856707,0.015989
 ,-0.0080988,-0.0016949,-0.0182958,-0.1188606,-0.0190094,-0.1549509,0.0
 082312,0.1344874,-0.0263062,-0.0114238,0.0184398,-0.0101896,-0.0725358
 ,-0.2189669,-0.0000198,0.0019938,-0.0000825,-0.0653456,0.0000978,0.003
 7263,0.0000571,-0.1641241,0.0924769,-0.0362851,0.0053427,-0.0210362,0.
 0549719,0.0034106,0.0051912,-0.0022771,0.1278924,0.0227594,0.0487118,0
 .007163,0.0520795,-0.0141465,-0.0037172,0.005555,-0.0057107,0.1367219,
 -0.0544148,-0.0000265,0.0109961,-0.0000227,0.0780568,0.0000512,0.01291
 9,0.0000599,0.1312738,0.022809,-0.048677,0.0072566,-0.0520447,-0.01416
 87,0.0040014,0.0056357,0.0059711,0.136703,0.0926064,0.0362485,0.005244
 5,0.0209745,0.0550931,-0.0032576,0.005156,0.0023688,0.1279051\Polar=11
 4.0939072,0.0034436,94.9006444,-2.8683892,-0.0295569,55.3524285\Quadru
 pole=-0.3923831,0.8152363,-0.4228532,0.0019757,-4.097939,-0.0116554\PG
 =C01 [X(C6H6O2S1)]\NImag=0\\0.14370900,0.19297442,0.53738934,0.0817311
 5,0.19282377,0.13414118,-0.15699308,-0.16543657,-0.06735317,0.56697429
 ,-0.17724418,-0.51281462,-0.17911344,-0.00015521,1.14532883,-0.0671203
 4,-0.16651521,-0.16487189,0.08551554,0.00043043,0.63658748,0.01812749,
 -0.01832486,-0.00053065,-0.15710940,0.17744042,-0.06686715,0.14386280,
 0.01833718,-0.01376009,0.01692055,0.16564888,-0.51314664,0.16588566,-0
 .19321144,0.53776663,-0.00049647,-0.01697734,0.02274054,-0.06713345,0.
 17849148,-0.16426622,0.08147341,-0.19210305,0.13348178,-0.00364298,0.0
 0326866,0.00240509,-0.16903690,-0.00002287,0.00923594,-0.00365405,-0.0
 0327196,0.00239106,0.55222157,-0.03089101,-0.00753613,-0.00330885,-0.0
 0003808,-0.07417029,0.00003896,0.03091838,-0.00754256,0.00328291,-0.00
 003167,0.70518713,-0.01372311,-0.00342622,0.01203551,0.01836564,0.0000
 3347,-0.07630366,-0.01369403,0.00340249,0.01203639,-0.03022859,-0.0004
 8153,0.14614471,-0.00118667,0.00012041,0.00080139,-0.02023804,0.019896
 82,0.00118934,-0.00605557,0.00433588,-0.00248670,-0.16116679,0.0534790
 9,0.00626068,0.69693313,-0.00033995,-0.00439857,-0.00118451,0.01444724
 ,0.00989362,0.00163695,-0.00536083,0.00213023,-0.00055172,0.11549314,-
 0.29067082,-0.00754629,0.04504153,0.72923532,-0.00047131,0.00013784,0.
 00048753,0.00174185,-0.00150182,-0.00107111,-0.00107416,0.00032289,0.0
 0143172,0.00624227,-0.00604062,-0.06370954,-0.03231235,0.00382135,0.14
 420752,0.00067008,-0.00062233,-0.00066766,0.00416735,0.00588857,0.0001
 3305,-0.00151020,0.00020548,0.00064171,-0.03067718,0.08687988,0.002291
 94,-0.34387351,-0.04012908,0.01765038,0.69390393,-0.00055431,0.0024811
 0,0.00029133,0.00183225,-0.00540331,-0.00080409,0.00222033,-0.00055603
 ,0.00095870,0.02655299,0.03696652,-0.00206558,0.03867549,-0.13217110,-
 0.00263115,-0.03918488,0.73548831,0.00079721,0.00044123,-0.00021906,-0
 .00096292,-0.00089954,0.00807340,0.00142529,-0.00020683,-0.00113962,0.
 00299978,-0.00543088,0.00919182,0.01755997,0.00238474,-0.06728054,-0.0
 3490197,0.00627244,0.14122997,-0.00037323,0.00011389,0.00005840,0.0019
 6868,0.00000034,-0.00014501,-0.00037326,-0.00011459,0.00005850,-0.0030
 3480,0.00002070,-0.00028353,-0.02611472,-0.03027872,0.00174991,-0.1843
 4574,-0.12708568,0.00707759,0.75376244,-0.00089431,0.00006098,0.000667
 64,-0.00000878,-0.00486066,0.00000626,0.00089656,0.00006245,-0.0006663
 9,0.00002844,-0.08033558,0.00006043,-0.08872956,0.04264370,0.00483744,
 -0.04846476,-0.29067174,0.00144579,-0.00004204,0.67440115,-0.00007301,
 -0.00013793,0.00007041,-0.00017568,0.00000330,-0.00107284,-0.00007409,
 0.00013743,0.00007242,0.00000849,0.00006608,-0.00847421,0.00194566,0.0
 0220379,0.00769204,0.00728638,0.00697469,-0.06677567,-0.03742655,-0.00
 048882,0.14728578,-0.00150630,-0.00020759,0.00064159,0.00415172,-0.005
 88222,0.00014923,0.00067262,0.00062174,-0.00066565,-0.03060360,-0.0869
 1122,0.00244356,-0.06220108,0.03750874,0.00268627,0.07729723,0.0286084
 7,-0.00457267,-0.18446185,0.04856511,0.00719929,0.69381693,-0.00221488
 ,-0.00055459,-0.00096653,-0.00181995,-0.00540264,0.00082399,0.00055680
 ,0.00248262,-0.00029419,-0.02659049,0.03691248,0.00202306,0.03390463,-
 0.02095716,-0.00146875,-0.02854314,-0.05928654,0.00184371,0.12718544,-
 0.29063847,-0.00656417,0.03906078,0.73554196,0.00143638,0.00021266,-0.
 00113766,-0.00095583,0.00091631,0.00807723,0.00079461,-0.00044144,-0.0
 0021832,0.00303888,0.00537881,0.00917482,0.00337866,-0.00240284,-0.008
 07964,-0.00452428,-0.00172415,0.00890422,0.00684869,-0.00103504,-0.066
 76071,-0.03499439,-0.00737076,0.14126754,-0.00604753,-0.00433578,-0.00
 250462,-0.02021389,-0.01989723,0.00124114,-0.00119070,-0.00012863,0.00
 080057,-0.16108930,-0.05341866,0.00635992,0.07243762,-0.02894466,-0.00
 238367,-0.06216485,-0.03392094,0.00343347,-0.02617609,0.08869673,0.001
 78997,-0.34381186,-0.03875797,0.01764586,0.69694277,0.00535259,0.00212
 443,0.00055451,-0.01445707,0.00988281,-0.00164828,0.00033639,-0.004399
 97,0.00119178,-0.11543695,-0.29078436,0.00794321,0.02900693,-0.0608834
 8,-0.00168908,-0.03752531,-0.02098656,0.00242635,0.03024732,0.04269586
 ,-0.00226544,0.04004551,-0.13217266,-0.00225930,-0.04511177,0.72922414
 ,-0.00109399,-0.00032489,0.00142347,0.00176419,0.00148232,-0.00106728,
 -0.00047122,-0.00012788,0.00048315,0.00645605,0.00643648,-0.06372166,-
 0.00244061,0.00181510,0.00995653,0.00275306,0.00149766,-0.00808898,0.0
 0170165,-0.00489893,0.00770453,0.01760033,0.00275229,-0.06728936,-0.03
 228661,-0.00482105,0.14423105,0.01010527,-0.00593258,-0.01392470,-0.05
 817523,-0.00001944,0.03525315,0.01009907,0.00595783,-0.01392802,-0.003
 42349,-0.00002837,0.02133767,-0.00050339,-0.00179746,0.00057920,-0.000
 68755,-0.00006671,-0.00156032,-0.00038368,-0.00000255,0.00024259,-0.00
 069312,0.00006260,-0.00156240,-0.00051244,0.00180333,0.00058463,0.0450
 6565,-0.00317210,-0.00608118,-0.02718087,-0.00001883,-0.04211334,0.000
 15098,0.00317444,-0.00613063,0.02716830,-0.00000076,0.00797316,0.00000
 819,-0.00107192,-0.00060058,0.00051427,-0.00035261,0.00028712,0.000033
 37,-0.00000010,0.00034732,-0.00000026,0.00035114,0.00028764,-0.0000365
 4,0.00107008,-0.00060349,-0.00051228,0.00002030,0.04666167,0.00009081,
 -0.00574802,-0.00409936,0.02789516,0.00014942,-0.23768038,0.00009456,0
 .00574205,-0.00404732,-0.00225952,0.00000778,0.00202596,0.00137309,0.0
 0004092,-0.00013976,0.00013582,-0.00055854,-0.00006844,-0.00024901,-0.
 00000202,-0.00000757,0.00013135,0.00056061,-0.00007090,0.00137716,-0.0
 0004312,-0.00014046,-0.02859655,-0.00014822,0.24469266,-0.00165108,-0.
 00141421,-0.00020173,0.00119962,0.00366382,0.00059098,-0.00000827,-0.0
 0081868,-0.00008322,0.01207865,0.01229469,-0.00047585,-0.13485143,-0.1
 2812428,0.00358544,-0.00901790,-0.02667251,0.00039400,-0.00532450,0.00
 083104,0.00068582,-0.00097037,0.00081183,0.00004202,-0.00148610,0.0037
 3821,0.00035565,-0.00024093,-0.00015150,-0.00012406,0.13896594,-0.0011
 7432,0.00207025,0.00029544,-0.00209637,-0.00353686,-0.00043227,0.00027
 657,0.00071960,-0.00012854,-0.01371620,-0.01896712,0.00035552,-0.12658
 966,-0.27138610,0.00305410,0.00244670,0.00597709,-0.00025999,0.0009851
 4,0.00134496,-0.00033467,0.00065483,0.00036686,-0.00001864,0.00388761,
 -0.00283553,-0.00040390,0.00031273,0.00000351,-0.00002473,0.13599248,0
 .28631312,-0.00048432,-0.00036982,-0.00064171,0.00050504,0.00003849,-0
 .00311941,-0.00058973,0.00019155,0.00025081,-0.00062987,-0.00088846,0.
 00364732,0.00306401,0.00171940,-0.04009729,0.00089410,0.00198932,0.004
 55592,0.00100538,-0.00000420,0.00764107,0.00011664,-0.00016755,-0.0008
 4204,0.00030451,-0.00011596,0.00635198,0.00069781,-0.00009801,-0.00022
 069,-0.00448387,-0.00237878,0.02746105,-0.00021917,-0.00051479,-0.0001
 4868,0.00103910,0.00136448,0.00018043,-0.00084955,0.00050511,-0.000207
 92,-0.00554386,-0.00065630,0.00093786,-0.01108749,0.02824396,0.0011969
 2,-0.13133769,0.12444699,0.00675047,0.01212637,-0.01514474,-0.00066116
 ,-0.00085939,-0.00333121,0.00053699,-0.00089252,-0.00097438,-0.0000100
 5,-0.00021944,-0.00010332,0.00011672,0.00111582,-0.00032963,-0.0003215
 2,0.13557632,0.00010167,0.00000616,-0.00000397,-0.00041653,0.00019515,
 0.00002775,-0.00005366,0.00003091,-0.00001955,-0.00051802,0.00178743,-
 0.00002841,-0.00221942,0.00446284,0.00015149,0.12443739,-0.27437938,-0
 .00973667,0.01571332,-0.01797303,-0.00118270,-0.00373168,-0.00309241,0
 .00017922,-0.00103609,0.00009133,0.00006249,0.00003457,-0.00002010,0.0
 0002239,0.00036109,0.00052971,0.00002082,-0.13335537,0.28834490,-0.000
 02907,0.00003277,-0.00006713,0.00005993,0.00000332,0.00054924,0.000205
 96,-0.00010116,-0.00016681,0.00057262,0.00034944,0.00740734,0.00107580
 ,-0.00211493,0.00353535,0.00668888,-0.01003964,-0.03938665,-0.00039772
 ,0.00113465,0.00368205,0.00059518,0.00011505,0.00735368,-0.00018272,0.
 00005126,-0.00080156,-0.00002800,-0.00006530,0.00000363,-0.00021820,0.
 00019142,-0.00418079,-0.00797572,0.01048450,0.02720232,-0.00013316,-0.
 00000211,-0.00001391,0.00002251,0.00000043,-0.00013378,-0.00013340,0.0
 0000163,-0.00001355,0.00103953,0.00000076,-0.00007537,0.00028424,-0.00
 299544,0.00045797,-0.01059102,0.00262768,0.00098537,-0.34407420,-0.000
 05890,0.01925338,-0.01060530,-0.00263412,0.00099134,0.00028087,0.00299
 908,0.00045270,0.00003147,-0.00000005,0.00002397,-0.00051528,0.0002642
 8,0.00003833,0.00068958,-0.00018451,-0.00030583,0.36352988,-0.00005608
 ,0.00026305,0.00005636,0.00000038,-0.00050781,-0.00000133,0.00005569,0
 .00026350,-0.00005637,0.00000076,-0.00163735,0.00000112,-0.00300010,-0
 .00455128,0.00013772,-0.02811457,0.00497728,0.00182922,-0.00005902,-0.
 06044688,0.00002207,0.02810801,0.00498847,-0.00182902,0.00300368,-0.00
 454869,-0.00011557,0.00000030,0.00000481,-0.00000011,-0.00126799,0.000
 18869,0.00010940,0.00055744,0.00092293,-0.00002368,0.00006235,0.058971
 21,-0.00017877,-0.00005325,0.00005094,0.00017501,0.00000026,-0.0012543
 0,-0.00017834,0.00005153,0.00005077,-0.00015093,0.00000186,-0.00051108
 ,0.00046539,0.00009836,0.00751948,0.00091167,-0.00023102,0.00448984,0.
 01936376,0.00002288,-0.04237903,0.00086012,0.00022937,0.00449397,0.000
 46019,-0.00007598,0.00752166,0.00023419,0.00000023,-0.00003257,0.00002
 437,-0.00000603,-0.00016740,-0.00030818,0.00004946,-0.00403647,-0.0213
 9320,-0.00003405,0.02845892,-0.00084860,-0.00050513,-0.00020926,0.0010
 3907,-0.00136367,0.00018349,-0.00021887,0.00051469,-0.00014848,-0.0055
 4452,0.00065319,0.00093788,-0.00089349,0.00097377,-0.00001192,-0.00086
 310,0.00333331,0.00053117,0.01212657,0.01516030,-0.00068972,-0.1311983
 1,-0.12434675,0.00697430,-0.01107349,-0.02825037,0.00124823,-0.0002204
 6,0.00010314,0.00011687,0.00003472,-0.00008661,-0.00008596,0.00042752,
 0.00079548,-0.00000162,0.00068988,-0.00055801,-0.00030720,0.13542728,0
 .00005339,0.00003066,0.00001926,0.00041726,0.00019462,-0.00002711,-0.0
 0010192,0.00000631,0.00000389,0.00051509,0.00178779,0.00003912,0.00103
 512,0.00009229,-0.00006421,0.00373399,-0.00308894,-0.00015969,-0.01569
 743,-0.01797404,0.00122196,-0.12433648,-0.27446827,0.01017239,0.002212
 73,0.00445246,-0.00015247,-0.00003453,-0.00002000,-0.00002239,-0.00007
 192,-0.00000215,-0.00000309,-0.00079475,-0.00090430,0.00002959,0.00018
 375,0.00092267,-0.00005873,0.13324683,0.28844200,0.00020714,0.00010057
 ,-0.00016570,0.00005884,-0.00000194,0.00054935,-0.00002880,-0.00003279
 ,-0.00006704,0.00057342,-0.00033876,0.00740547,-0.00018428,-0.00005450
 ,-0.00080205,0.00058679,-0.00009660,0.00735601,-0.00036903,-0.00109335
 ,0.00368320,0.00691420,0.01047367,-0.03943092,0.00106995,0.00211421,0.
 00353195,-0.00002877,0.00006543,0.00000349,-0.00005917,0.00004541,-0.0
 0114622,-0.00000013,-0.00002779,0.00005146,-0.00030622,0.00001439,-0.0
 0403767,-0.00821535,-0.01096900,0.02724795,-0.00001005,0.00081858,-0.0
 0008322,0.00120421,-0.00367007,0.00059401,-0.00165871,0.00141689,-0.00
 020178,0.01207771,-0.01227136,-0.00045469,-0.00148280,-0.00373794,0.00
 036321,-0.00096986,-0.00081250,0.00004356,-0.00532198,-0.00083252,0.00
 068861,-0.00902732,0.02665644,0.00034919,-0.13500250,0.12822648,0.0033
 8599,-0.00024174,0.00015208,-0.00012638,0.00067112,-0.00082756,-0.0000
 3054,0.00003441,0.00007177,-0.00005950,-0.00051559,0.00126715,0.000021
 92,0.00111582,-0.00036115,-0.00021858,0.13912728,-0.00027811,0.0007192
 1,0.00012932,0.00210139,-0.00353886,0.00042732,0.00117714,0.00207365,-
 0.00029993,0.01372986,-0.01897030,-0.00031856,-0.00388524,-0.00283891,
 0.00041852,-0.00065534,0.00036618,0.00001676,-0.00098858,0.00134397,0.
 00034468,-0.00245513,0.00599271,0.00025836,0.12668091,-0.27125630,-0.0
 0268935,-0.00031003,0.00000409,0.00002399,0.00082793,-0.00078603,-0.00
 004311,0.00008649,-0.00000212,-0.00004728,-0.00026481,0.00018943,0.000
 00512,0.00032982,0.00052891,-0.00019895,-0.13609628,0.28617437,-0.0005
 9232,-0.00019616,0.00025292,0.00049987,-0.00003207,-0.00312961,-0.0004
 8567,0.00035902,-0.00064225,-0.00065468,0.00092678,0.00365079,0.000309
 95,0.00013418,0.00634977,0.00012013,0.00016664,-0.00084221,0.00100696,
 0.00001366,0.00763852,0.00089495,-0.00198979,0.00455810,0.00287488,-0.
 00136309,-0.04009501,0.00069953,0.00010071,-0.00021829,-0.00003218,0.0
 0004567,0.00050739,-0.00008602,0.00000098,-0.00114567,0.00003879,-0.00
 011015,-0.00016706,-0.00032240,-0.00002952,-0.00417928,-0.00427179,0.0
 0197312,0.02746189\\0.00001369,-0.00000265,0.00002435,-0.00011252,-0.0
 0000302,-0.00019074,0.00001402,0.00000650,0.00002615,0.00020030,0.0000
 0863,-0.00000968,-0.00007193,-0.00000479,0.00004339,0.00000591,0.00001
 512,-0.00001882,-0.00002511,0.00000458,0.00001107,0.00001279,-0.000021
 92,-0.00001949,-0.00007522,0.00000306,0.00003310,0.00002819,-0.0000033
 1,0.00011159,-0.00000113,0.00002467,-0.00000747,0.00001010,0.00001242,
 -0.00000230,-0.00000519,-0.00000005,0.00000693,0.00000972,-0.00001204,
 -0.00000359,-0.00000363,-0.00002720,-0.00000449\\\@
 The archive entry for this job was punched.


 THE GREAT THING ABOUT BEING IMPERFECT IS THE JOY IT BRINGS OTHERS.
   -- SIGN OUTSIDE LAKE AGASSIZ JR. HIGH SCHOOL, FARGO, N.D.
 Job cpu time:       0 days  1 hours  0 minutes 49.0 seconds.
 Elapsed time:       0 days  0 hours  7 minutes 41.2 seconds.
 File lengths (MBytes):  RWF=    210 Int=      0 D2E=      0 Chk=     10 Scr=      2
 Normal termination of Gaussian 16 at Mon Jun 20 19:43:33 2022.
