 Entering Gaussian System, Link 0=/opt/apps/Gaussian/G16C/g16/g16
 Input=/home/svss/projects/Project-Philicity/GS/hydrocarbon/set-1/GS/mol_13_hc/mol_13_hc.com
 Output=/home/svss/projects/Project-Philicity/GS/hydrocarbon/set-1/GS/mol_13_hc/mol_13_hc.log
 Initial command:
 /opt/apps/Gaussian/G16C/g16/l1.exe "/home/svss/projects/Project-Philicity/GS/hydrocarbon/set-1/Gau-158528.inp" -scrdir="/home/svss/projects/Project-Philicity/GS/hydrocarbon/set-1/"
 Entering Link 1 = /opt/apps/Gaussian/G16C/g16/l1.exe PID=    158529.
  
 Copyright (c) 1988-2019, Gaussian, Inc.  All Rights Reserved.
  
 This is part of the Gaussian(R) 16 program.  It is based on
 the Gaussian(R) 09 system (copyright 2009, Gaussian, Inc.),
 the Gaussian(R) 03 system (copyright 2003, Gaussian, Inc.),
 the Gaussian(R) 98 system (copyright 1998, Gaussian, Inc.),
 the Gaussian(R) 94 system (copyright 1995, Gaussian, Inc.),
 the Gaussian 92(TM) system (copyright 1992, Gaussian, Inc.),
 the Gaussian 90(TM) system (copyright 1990, Gaussian, Inc.),
 the Gaussian 88(TM) system (copyright 1988, Gaussian, Inc.),
 the Gaussian 86(TM) system (copyright 1986, Carnegie Mellon
 University), and the Gaussian 82(TM) system (copyright 1983,
 Carnegie Mellon University). Gaussian is a federally registered
 trademark of Gaussian, Inc.
  
 This software contains proprietary and confidential information,
 including trade secrets, belonging to Gaussian, Inc.
  
 This software is provided under written license and may be
 used, copied, transmitted, or stored only in accord with that
 written license.
  
 The following legend is applicable only to US Government
 contracts under FAR:
  
                    RESTRICTED RIGHTS LEGEND
  
 Use, reproduction and disclosure by the US Government is
 subject to restrictions as set forth in subparagraphs (a)
 and (c) of the Commercial Computer Software - Restricted
 Rights clause in FAR 52.227-19.
  
 Gaussian, Inc.
 340 Quinnipiac St., Bldg. 40, Wallingford CT 06492
  
  
 ---------------------------------------------------------------
 Warning -- This program may not be used in any manner that
 competes with the business of Gaussian, Inc. or will provide
 assistance to any competitor of Gaussian, Inc.  The licensee
 of this program is prohibited from giving any competitor of
 Gaussian, Inc. access to this program.  By using this program,
 the user acknowledges that Gaussian, Inc. is engaged in the
 business of creating and licensing software in the field of
 computational chemistry and represents and warrants to the
 licensee that it is not a competitor of Gaussian, Inc. and that
 it will not use this program in any manner prohibited above.
 ---------------------------------------------------------------
  

 Cite this work as:
 Gaussian 16, Revision C.01,
 M. J. Frisch, G. W. Trucks, H. B. Schlegel, G. E. Scuseria, 
 M. A. Robb, J. R. Cheeseman, G. Scalmani, V. Barone, 
 G. A. Petersson, H. Nakatsuji, X. Li, M. Caricato, A. V. Marenich, 
 J. Bloino, B. G. Janesko, R. Gomperts, B. Mennucci, H. P. Hratchian, 
 J. V. Ortiz, A. F. Izmaylov, J. L. Sonnenberg, D. Williams-Young, 
 F. Ding, F. Lipparini, F. Egidi, J. Goings, B. Peng, A. Petrone, 
 T. Henderson, D. Ranasinghe, V. G. Zakrzewski, J. Gao, N. Rega, 
 G. Zheng, W. Liang, M. Hada, M. Ehara, K. Toyota, R. Fukuda, 
 J. Hasegawa, M. Ishida, T. Nakajima, Y. Honda, O. Kitao, H. Nakai, 
 T. Vreven, K. Throssell, J. A. Montgomery, Jr., J. E. Peralta, 
 F. Ogliaro, M. J. Bearpark, J. J. Heyd, E. N. Brothers, K. N. Kudin, 
 V. N. Staroverov, T. A. Keith, R. Kobayashi, J. Normand, 
 K. Raghavachari, A. P. Rendell, J. C. Burant, S. S. Iyengar, 
 J. Tomasi, M. Cossi, J. M. Millam, M. Klene, C. Adamo, R. Cammi, 
 J. W. Ochterski, R. L. Martin, K. Morokuma, O. Farkas, 
 J. B. Foresman, and D. J. Fox, Gaussian, Inc., Wallingford CT, 2019.
 
 ******************************************
 Gaussian 16:  AS64L-G16RevC.01  3-Jul-2019
                20-Jun-2022 
 ******************************************
 %nproc=8
 Will use up to    8 processors via shared memory.
 %mem=96GB
 %chk=/home/svss/projects/Project-Philicity/GS/hydrocarbon/set-1/GS/mol_13_hc/mol
 _13_hc.chk
 -------------------------
 # opt freq M062X/def2tzvp
 -------------------------
 1/18=20,19=15,26=3,38=1/1,3;
 2/9=110,12=2,17=6,18=5,40=1/2;
 3/5=44,7=101,11=2,25=1,30=1,71=1,74=-55/1,2,3;
 4//1;
 5/5=2,38=5/2;
 6/7=2,8=2,9=2,10=2,28=1/1;
 7//1,2,3,16;
 1/18=20,19=15,26=3/3(2);
 2/9=110/2;
 99//99;
 2/9=110/2;
 3/5=44,7=101,11=2,25=1,30=1,71=1,74=-55/1,2,3;
 4/5=5,16=3,69=1/1;
 5/5=2,38=5/2;
 7//1,2,3,16;
 1/18=20,19=15,26=3/3(-5);
 2/9=110/2;
 6/7=2,8=2,9=2,10=2,19=2,28=1/1;
 99/9=1/99;
 ----------------------------------------------------------------------
 converted from /home/svss/projects/Project-Philicity/GS/hydrocarbon/se
 t-1/GS/mol_13_hc/mol_13_hc_cregen_best.xyz
 ----------------------------------------------------------------------
 Symbolic Z-matrix:
 Charge =  0 Multiplicity = 1
 C                    -0.87299  -1.07469  -0.00004 
 C                     0.49421  -1.29336   0.00002 
 C                     1.3672   -0.21869   0.00002 
 C                     0.87298   1.07468  -0.00002 
 C                    -0.4942    1.29337  -0.00002 
 C                    -1.3672    0.21869   0.00007 
 H                    -1.55426  -1.91331  -0.00018 
 H                     0.87986  -2.30264  -0.00001 
 H                     2.4341   -0.38938  -0.00008 
 H                     1.55425   1.91329   0.00012 
 H                    -0.87987   2.30266  -0.00018 
 H                    -2.43409   0.3894    0.00001 
 

 GradGradGradGradGradGradGradGradGradGradGradGradGradGradGradGradGradGrad
 Berny optimization.
 Initialization pass.
                           ----------------------------
                           !    Initial Parameters    !
                           ! (Angstroms and Degrees)  !
 --------------------------                            --------------------------
 ! Name  Definition              Value          Derivative Info.                !
 --------------------------------------------------------------------------------
 ! R1    R(1,2)                  1.3846         estimate D2E/DX2                !
 ! R2    R(1,6)                  1.3846         estimate D2E/DX2                !
 ! R3    R(1,7)                  1.0805         estimate D2E/DX2                !
 ! R4    R(2,3)                  1.3846         estimate D2E/DX2                !
 ! R5    R(2,8)                  1.0804         estimate D2E/DX2                !
 ! R6    R(3,4)                  1.3846         estimate D2E/DX2                !
 ! R7    R(3,9)                  1.0805         estimate D2E/DX2                !
 ! R8    R(4,5)                  1.3846         estimate D2E/DX2                !
 ! R9    R(4,10)                 1.0805         estimate D2E/DX2                !
 ! R10   R(5,6)                  1.3846         estimate D2E/DX2                !
 ! R11   R(5,11)                 1.0805         estimate D2E/DX2                !
 ! R12   R(6,12)                 1.0805         estimate D2E/DX2                !
 ! A1    A(2,1,6)              119.9991         estimate D2E/DX2                !
 ! A2    A(2,1,7)              120.0025         estimate D2E/DX2                !
 ! A3    A(6,1,7)              119.9984         estimate D2E/DX2                !
 ! A4    A(1,2,3)              120.0012         estimate D2E/DX2                !
 ! A5    A(1,2,8)              119.999          estimate D2E/DX2                !
 ! A6    A(3,2,8)              119.9998         estimate D2E/DX2                !
 ! A7    A(2,3,4)              119.9991         estimate D2E/DX2                !
 ! A8    A(2,3,9)              119.9986         estimate D2E/DX2                !
 ! A9    A(4,3,9)              120.0023         estimate D2E/DX2                !
 ! A10   A(3,4,5)              120.0006         estimate D2E/DX2                !
 ! A11   A(3,4,10)             119.9975         estimate D2E/DX2                !
 ! A12   A(5,4,10)             120.0018         estimate D2E/DX2                !
 ! A13   A(4,5,6)              120.0003         estimate D2E/DX2                !
 ! A14   A(4,5,11)             120.0007         estimate D2E/DX2                !
 ! A15   A(6,5,11)             119.999          estimate D2E/DX2                !
 ! A16   A(1,6,5)              119.9996         estimate D2E/DX2                !
 ! A17   A(1,6,12)             120.0029         estimate D2E/DX2                !
 ! A18   A(5,6,12)             119.9975         estimate D2E/DX2                !
 ! D1    D(6,1,2,3)             -0.0081         estimate D2E/DX2                !
 ! D2    D(6,1,2,8)            179.9966         estimate D2E/DX2                !
 ! D3    D(7,1,2,3)            179.9914         estimate D2E/DX2                !
 ! D4    D(7,1,2,8)             -0.0039         estimate D2E/DX2                !
 ! D5    D(2,1,6,5)              0.0124         estimate D2E/DX2                !
 ! D6    D(2,1,6,12)           179.9992         estimate D2E/DX2                !
 ! D7    D(7,1,6,5)           -179.9871         estimate D2E/DX2                !
 ! D8    D(7,1,6,12)            -0.0004         estimate D2E/DX2                !
 ! D9    D(1,2,3,4)              0.001          estimate D2E/DX2                !
 ! D10   D(1,2,3,9)           -179.991          estimate D2E/DX2                !
 ! D11   D(8,2,3,4)            179.9963         estimate D2E/DX2                !
 ! D12   D(8,2,3,9)              0.0043         estimate D2E/DX2                !
 ! D13   D(2,3,4,5)              0.0019         estimate D2E/DX2                !
 ! D14   D(2,3,4,10)           179.9914         estimate D2E/DX2                !
 ! D15   D(9,3,4,5)            179.9939         estimate D2E/DX2                !
 ! D16   D(9,3,4,10)            -0.0166         estimate D2E/DX2                !
 ! D17   D(3,4,5,6)              0.0024         estimate D2E/DX2                !
 ! D18   D(3,4,5,11)          -179.9921         estimate D2E/DX2                !
 ! D19   D(10,4,5,6)          -179.9871         estimate D2E/DX2                !
 ! D20   D(10,4,5,11)            0.0184         estimate D2E/DX2                !
 ! D21   D(4,5,6,1)             -0.0096         estimate D2E/DX2                !
 ! D22   D(4,5,6,12)          -179.9963         estimate D2E/DX2                !
 ! D23   D(11,5,6,1)           179.9849         estimate D2E/DX2                !
 ! D24   D(11,5,6,12)           -0.0018         estimate D2E/DX2                !
 --------------------------------------------------------------------------------
 Trust Radius=3.00D-01 FncErr=1.00D-07 GrdErr=1.00D-06 EigMax=2.50D+02 EigMin=1.00D-04
 Number of steps in this run=     64 maximum allowed number of steps=    100.
 GradGradGradGradGradGradGradGradGradGradGradGradGradGradGradGradGradGrad

                          Input orientation:                          
 ---------------------------------------------------------------------
 Center     Atomic      Atomic             Coordinates (Angstroms)
 Number     Number       Type             X           Y           Z
 ---------------------------------------------------------------------
      1          6           0       -0.872990   -1.074690   -0.000040
      2          6           0        0.494210   -1.293360    0.000020
      3          6           0        1.367200   -0.218690    0.000020
      4          6           0        0.872980    1.074680   -0.000020
      5          6           0       -0.494200    1.293370   -0.000020
      6          6           0       -1.367200    0.218690    0.000070
      7          1           0       -1.554260   -1.913310   -0.000180
      8          1           0        0.879860   -2.302640   -0.000010
      9          1           0        2.434100   -0.389380   -0.000080
     10          1           0        1.554250    1.913290    0.000120
     11          1           0       -0.879870    2.302660   -0.000180
     12          1           0       -2.434090    0.389400    0.000010
 ---------------------------------------------------------------------
                    Distance matrix (angstroms):
                    1          2          3          4          5
     1  C    0.000000
     2  C    1.384577   0.000000
     3  C    2.398163   1.384567   0.000000
     4  C    2.769152   2.398141   1.384579   0.000000
     5  C    2.398164   2.769138   2.398152   1.384560   0.000000
     6  C    1.384585   2.398154   2.769160   2.398150   1.384582
     7  H    1.080469   2.140226   3.377376   3.849621   3.377355
     8  H    2.140174   1.080450   2.140175   3.377327   3.849588
     9  H    3.377350   2.140176   1.080468   2.140226   3.377364
    10  H    3.849613   3.377320   2.140170   1.080461   2.140198
    11  H    3.377357   3.849605   3.377355   2.140191   1.080466
    12  H    2.140232   3.377369   3.849621   3.377324   2.140172
                    6          7          8          9         10
     6  C    0.000000
     7  H    2.140191   0.000000
     8  H    3.377334   2.465059   0.000000
     9  H    3.849627   4.269588   2.465000   0.000000
    10  H    3.377357   4.930081   4.269528   2.465041   0.000000
    11  H    2.140192   4.269567   4.930055   4.269599   2.465066
    12  H    1.080461   2.465071   4.269584   4.930088   4.269555
                   11         12
    11  H    0.000000
    12  H    2.464988   0.000000
 Stoichiometry    C6H6
 Framework group  C1[X(C6H6)]
 Deg. of freedom    30
 Full point group                 C1      NOp   1
 Largest Abelian subgroup         C1      NOp   1
 Largest concise Abelian subgroup C1      NOp   1
                         Standard orientation:                         
 ---------------------------------------------------------------------
 Center     Atomic      Atomic             Coordinates (Angstroms)
 Number     Number       Type             X           Y           Z
 ---------------------------------------------------------------------
      1          6           0       -0.592764    1.251280    0.000037
      2          6           0        0.787251    1.138974   -0.000023
      3          6           0        1.380019   -0.112286   -0.000023
      4          6           0        0.592757   -1.251267    0.000017
      5          6           0       -0.787243   -1.138985    0.000017
      6          6           0       -1.380019    0.112287   -0.000073
      7          1           0       -1.055362    2.227710    0.000177
      8          1           0        1.401576    2.027780    0.000007
      9          1           0        2.456931   -0.199876    0.000077
     10          1           0        1.055358   -2.227687   -0.000123
     11          1           0       -1.401590   -2.027796    0.000177
     12          1           0       -2.456925    0.199855   -0.000013
 ---------------------------------------------------------------------
 Rotational constants (GHZ):           5.7833413           5.7833024           2.8916609
 Standard basis: def2TZVP (5D, 7F)
 There are   252 symmetry adapted cartesian basis functions of A   symmetry.
 There are   222 symmetry adapted basis functions of A   symmetry.
   222 basis functions,   354 primitive gaussians,   252 cartesian basis functions
    21 alpha electrons       21 beta electrons
       nuclear repulsion energy       204.8729581327 Hartrees.
 NAtoms=   12 NActive=   12 NUniq=   12 SFac= 1.00D+00 NAtFMM=   60 NAOKFM=F Big=F
 Integral buffers will be    131072 words long.
 Raffenetti 2 integral format.
 Two-electron integral symmetry is turned on.
 One-electron integrals computed using PRISM.
   1 Symmetry operations used in ECPInt.
 ECPInt:  NShTT=    4095 NPrTT=   12396 LenC2=    4075 LenP2D=   10437.
 LDataN:  DoStor=T MaxTD1= 6 Len=  172
 NBasis=   222 RedAO= T EigKep=  9.52D-06  NBF=   222
 NBsUse=   222 1.00D-06 EigRej= -1.00D+00 NBFU=   222
 ExpMin= 9.52D-02 ExpMax= 1.36D+04 ExpMxC= 4.63D+02 IAcc=3 IRadAn=         5 AccDes= 0.00D+00
 Harris functional with IExCor= 1009 and IRadAn=       5 diagonalized for initial guess.
 HarFok:  IExCor= 1009 AccDes= 0.00D+00 IRadAn=         5 IDoV= 1 UseB2=F ITyADJ=14
 ICtDFT=  3500011 ScaDFX=  1.000000  1.000000  1.000000  1.000000
 FoFCou: FMM=F IPFlag=           0 FMFlag=      100000 FMFlg1=           0
         NFxFlg=           0 DoJE=T BraDBF=F KetDBF=T FulRan=T
         wScrn=  0.000000 ICntrl=       500 IOpCl=  0 I1Cent=   200000004 NGrid=           0
         NMat0=    1 NMatS0=      1 NMatT0=    0 NMatD0=    1 NMtDS0=    0 NMtDT0=    0
 Petite list used in FoFCou.
 Keep R1 ints in memory in canonical form, NReq=315049625.
 Requested convergence on RMS density matrix=1.00D-08 within 128 cycles.
 Requested convergence on MAX density matrix=1.00D-06.
 Requested convergence on             energy=1.00D-06.
 No special actions if energy rises.
 Integral accuracy reduced to 1.0D-05 until final iterations.
 Initial convergence to 1.0D-05 achieved.  Increase integral accuracy.
 SCF Done:  E(RM062X) =  -232.224514702     A.U. after   11 cycles
            NFock= 11  Conv=0.20D-08     -V/T= 2.0047

 **********************************************************************

            Population analysis using the SCF Density.

 **********************************************************************

 Orbital symmetries:
       Occupied  (A) (A) (A) (A) (A) (A) (A) (A) (A) (A) (A) (A)
                 (A) (A) (A) (A) (A) (A) (A) (A) (A)
       Virtual   (A) (A) (A) (A) (A) (A) (A) (A) (A) (A) (A) (A)
                 (A) (A) (A) (A) (A) (A) (A) (A) (A) (A) (A) (A)
                 (A) (A) (A) (A) (A) (A) (A) (A) (A) (A) (A) (A)
                 (A) (A) (A) (A) (A) (A) (A) (A) (A) (A) (A) (A)
                 (A) (A) (A) (A) (A) (A) (A) (A) (A) (A) (A) (A)
                 (A) (A) (A) (A) (A) (A) (A) (A) (A) (A) (A) (A)
                 (A) (A) (A) (A) (A) (A) (A) (A) (A) (A) (A) (A)
                 (A) (A) (A) (A) (A) (A) (A) (A) (A) (A) (A) (A)
                 (A) (A) (A) (A) (A) (A) (A) (A) (A) (A) (A) (A)
                 (A) (A) (A) (A) (A) (A) (A) (A) (A) (A) (A) (A)
                 (A) (A) (A) (A) (A) (A) (A) (A) (A) (A) (A) (A)
                 (A) (A) (A) (A) (A) (A) (A) (A) (A) (A) (A) (A)
                 (A) (A) (A) (A) (A) (A) (A) (A) (A) (A) (A) (A)
                 (A) (A) (A) (A) (A) (A) (A) (A) (A) (A) (A) (A)
                 (A) (A) (A) (A) (A) (A) (A) (A) (A) (A) (A) (A)
                 (A) (A) (A) (A) (A) (A) (A) (A) (A) (A) (A) (A)
                 (A) (A) (A) (A) (A) (A) (A) (A) (A)
 The electronic state is 1-A.
 Alpha  occ. eigenvalues --  -10.53981 -10.53944 -10.53944 -10.53860 -10.53860
 Alpha  occ. eigenvalues --  -10.53820  -0.96304  -0.84448  -0.84448  -0.68673
 Alpha  occ. eigenvalues --   -0.68673  -0.60297  -0.53246  -0.51498  -0.48897
 Alpha  occ. eigenvalues --   -0.48897  -0.44243  -0.40235  -0.40234  -0.30946
 Alpha  occ. eigenvalues --   -0.30946
 Alpha virt. eigenvalues --    0.02423   0.02423   0.08180   0.11012   0.11012
 Alpha virt. eigenvalues --    0.13658   0.13658   0.15464   0.17939   0.19502
 Alpha virt. eigenvalues --    0.24055   0.24457   0.24835   0.24836   0.26563
 Alpha virt. eigenvalues --    0.26563   0.28398   0.28398   0.31044   0.31044
 Alpha virt. eigenvalues --    0.36724   0.36724   0.37014   0.39712   0.39713
 Alpha virt. eigenvalues --    0.42061   0.44427   0.44427   0.44798   0.45900
 Alpha virt. eigenvalues --    0.47568   0.47569   0.50015   0.50195   0.52358
 Alpha virt. eigenvalues --    0.53736   0.53737   0.55041   0.55041   0.68744
 Alpha virt. eigenvalues --    0.68744   0.69637   0.74565   0.74678   0.79103
 Alpha virt. eigenvalues --    0.79105   0.79144   0.79146   0.85690   0.89319
 Alpha virt. eigenvalues --    0.89319   0.89791   0.91939   0.93919   1.04319
 Alpha virt. eigenvalues --    1.04319   1.04780   1.04780   1.09569   1.09570
 Alpha virt. eigenvalues --    1.21526   1.21527   1.21757   1.24149   1.24150
 Alpha virt. eigenvalues --    1.26250   1.26250   1.29195   1.29196   1.33208
 Alpha virt. eigenvalues --    1.41803   1.42503   1.45237   1.49208   1.49208
 Alpha virt. eigenvalues --    1.53089   1.53089   1.54170   1.54170   1.61987
 Alpha virt. eigenvalues --    1.64699   1.69602   1.72365   1.72365   1.72787
 Alpha virt. eigenvalues --    1.73134   1.73135   1.76118   1.76118   1.81362
 Alpha virt. eigenvalues --    1.89352   1.94302   1.94303   2.07169   2.07170
 Alpha virt. eigenvalues --    2.08149   2.10519   2.10520   2.12915   2.20102
 Alpha virt. eigenvalues --    2.20103   2.24613   2.27205   2.27206   2.35578
 Alpha virt. eigenvalues --    2.48772   2.49208   2.49209   2.57299   2.58622
 Alpha virt. eigenvalues --    2.58788   2.58788   2.60447   2.68188   2.68190
 Alpha virt. eigenvalues --    2.68527   2.68528   2.69936   2.70822   2.70823
 Alpha virt. eigenvalues --    2.74737   2.75997   2.75998   2.81189   2.81702
 Alpha virt. eigenvalues --    2.81704   2.84988   2.84989   2.86260   2.86858
 Alpha virt. eigenvalues --    2.86860   2.92022   3.02958   3.08887   3.08888
 Alpha virt. eigenvalues --    3.09351   3.09352   3.15446   3.15448   3.15695
 Alpha virt. eigenvalues --    3.15696   3.19065   3.21499   3.21500   3.24346
 Alpha virt. eigenvalues --    3.26872   3.26874   3.31835   3.35445   3.39276
 Alpha virt. eigenvalues --    3.39276   3.39829   3.44018   3.44018   3.50974
 Alpha virt. eigenvalues --    3.51119   3.53146   3.53147   3.60987   3.62369
 Alpha virt. eigenvalues --    3.62370   3.75387   3.75388   3.76136   3.80881
 Alpha virt. eigenvalues --    3.86624   4.00885   4.00888   4.06630   4.08573
 Alpha virt. eigenvalues --    4.08574   4.11414   4.16750   4.17701   4.17702
 Alpha virt. eigenvalues --    4.20209   4.20211   4.28067   4.28068   4.28587
 Alpha virt. eigenvalues --    4.28588   4.59137   4.59448   4.59448   4.62502
 Alpha virt. eigenvalues --    4.79518   4.79519   4.87525   4.87528   5.18617
 Alpha virt. eigenvalues --    5.18619   5.22359   5.22410   5.40161   5.54774
 Alpha virt. eigenvalues --   21.98412  22.68216  22.68218  22.78461  22.78465
 Alpha virt. eigenvalues --   23.21121
          Condensed to atoms (all electrons):
               1          2          3          4          5          6
     1  C    4.874638   0.531145  -0.054340  -0.038145  -0.054335   0.531130
     2  C    0.531145   4.874581   0.531133  -0.054346  -0.038144  -0.054350
     3  C   -0.054340   0.531133   4.874580   0.531124  -0.054342  -0.038144
     4  C   -0.038145  -0.054346   0.531124   4.874625   0.531157  -0.054350
     5  C   -0.054335  -0.038144  -0.054342   0.531157   4.874586   0.531123
     6  C    0.531130  -0.054350  -0.038144  -0.054350   0.531123   4.874582
     7  H    0.408860  -0.032413   0.003711  -0.000066   0.003711  -0.032414
     8  H   -0.032419   0.408864  -0.032419   0.003711  -0.000066   0.003711
     9  H    0.003711  -0.032421   0.408868  -0.032415   0.003711  -0.000066
    10  H   -0.000066   0.003712  -0.032417   0.408863  -0.032415   0.003712
    11  H    0.003711  -0.000066   0.003711  -0.032415   0.408859  -0.032419
    12  H   -0.032416   0.003711  -0.000066   0.003711  -0.032425   0.408870
               7          8          9         10         11         12
     1  C    0.408860  -0.032419   0.003711  -0.000066   0.003711  -0.032416
     2  C   -0.032413   0.408864  -0.032421   0.003712  -0.000066   0.003711
     3  C    0.003711  -0.032419   0.408868  -0.032417   0.003711  -0.000066
     4  C   -0.000066   0.003711  -0.032415   0.408863  -0.032415   0.003711
     5  C    0.003711  -0.000066   0.003711  -0.032415   0.408859  -0.032425
     6  C   -0.032414   0.003711  -0.000066   0.003712  -0.032419   0.408870
     7  H    0.515762  -0.004058  -0.000273   0.000087  -0.000273  -0.004057
     8  H   -0.004058   0.515770  -0.004057  -0.000273   0.000087  -0.000273
     9  H   -0.000273  -0.004057   0.515761  -0.004058  -0.000273   0.000087
    10  H    0.000087  -0.000273  -0.004058   0.515768  -0.004058  -0.000273
    11  H   -0.000273   0.000087  -0.000273  -0.004058   0.515768  -0.004057
    12  H   -0.004057  -0.000273   0.000087  -0.000273  -0.004057   0.515763
 Mulliken charges:
               1
     1  C   -0.141474
     2  C   -0.141406
     3  C   -0.141397
     4  C   -0.141456
     5  C   -0.141419
     6  C   -0.141386
     7  H    0.141423
     8  H    0.141422
     9  H    0.141426
    10  H    0.141419
    11  H    0.141424
    12  H    0.141424
 Sum of Mulliken charges =  -0.00000
 Mulliken charges with hydrogens summed into heavy atoms:
               1
     1  C   -0.000051
     2  C    0.000015
     3  C    0.000029
     4  C   -0.000037
     5  C    0.000005
     6  C    0.000039
 Electronic spatial extent (au):  <R**2>=            453.5430
 Charge=             -0.0000 electrons
 Dipole moment (field-independent basis, Debye):
    X=              0.0000    Y=             -0.0000    Z=              0.0002  Tot=              0.0002
 Quadrupole moment (field-independent basis, Debye-Ang):
   XX=            -31.7563   YY=            -31.7567   ZZ=            -39.9135
   XY=              0.0001   XZ=             -0.0003   YZ=              0.0003
 Traceless Quadrupole moment (field-independent basis, Debye-Ang):
   XX=              2.7192   YY=              2.7188   ZZ=             -5.4380
   XY=              0.0001   XZ=             -0.0003   YZ=              0.0003
 Octapole moment (field-independent basis, Debye-Ang**2):
  XXX=              0.0001  YYY=              0.0003  ZZZ=              0.0004  XYY=             -0.0002
  XXY=             -0.0002  XXZ=              0.0011  XZZ=              0.0001  YZZ=             -0.0000
  YYZ=              0.0010  XYZ=              0.0004
 Hexadecapole moment (field-independent basis, Debye-Ang**3):
 XXXX=           -268.5561 YYYY=           -268.5576 ZZZZ=            -47.4238 XXXY=              0.0008
 XXXZ=              0.0007 YYYX=             -0.0005 YYYZ=              0.0021 ZZZX=              0.0001
 ZZZY=             -0.0000 XXYY=            -89.5187 XXZZ=            -63.1408 YYZZ=            -63.1403
 XXYZ=             -0.0001 YYXZ=             -0.0028 ZZXY=              0.0001
 N-N= 2.048729581327D+02 E-N=-9.480270101781D+02  KE= 2.311451191169D+02
   1 Symmetry operations used in ECPInt.
 ECPInt:  NShTT=    4095 NPrTT=   12396 LenC2=    4075 LenP2D=   10437.
 LDataN:  DoStor=T MaxTD1= 7 Len=  274
 Calling FoFJK, ICntrl=      2127 FMM=F ISym2X=0 I1Cent= 0 IOpClX= 0 NMat=1 NMatS=1 NMatT=0.
 ***** Axes restored to original set *****
 -------------------------------------------------------------------
 Center     Atomic                   Forces (Hartrees/Bohr)
 Number     Number              X              Y              Z
 -------------------------------------------------------------------
      1        6          -0.001593555   -0.001951820    0.000012020
      2        6           0.000898962   -0.002345578   -0.000009958
      3        6           0.002486719   -0.000410889   -0.000004201
      4        6           0.001601844    0.001960650    0.000013000
      5        6          -0.000920195    0.002343311    0.000001984
      6        6          -0.002478717    0.000410732   -0.000023790
      7        1          -0.000900790   -0.001123947    0.000005722
      8        1           0.000528428   -0.001355060   -0.000001200
      9        1           0.001426247   -0.000217115    0.000007234
     10        1           0.000904762    0.001128707   -0.000011110
     11        1          -0.000522384    0.001344597    0.000008412
     12        1          -0.001431320    0.000216411    0.000001887
 -------------------------------------------------------------------
 Cartesian Forces:  Max     0.002486719 RMS     0.001185722

 GradGradGradGradGradGradGradGradGradGradGradGradGradGradGradGradGradGrad
 Berny optimization.
 FormGI is forming the generalized inverse of G from B-inverse, IUseBI=4.
 Internal  Forces:  Max     0.003977306 RMS     0.001406663
 Search for a local minimum.
 Step number   1 out of a maximum of   64
 All quantities printed in internal units (Hartrees-Bohrs-Radians)
 Mixed Optimization -- RFO/linear search
 Second derivative matrix not updated -- first step.
 ITU=  0
     Eigenvalues ---    0.02293   0.02293   0.02293   0.02293   0.02293
     Eigenvalues ---    0.02293   0.02293   0.02293   0.02293   0.16000
     Eigenvalues ---    0.16000   0.16000   0.16000   0.16000   0.16000
     Eigenvalues ---    0.22000   0.22000   0.22000   0.35938   0.35938
     Eigenvalues ---    0.35938   0.35939   0.35939   0.35940   0.43552
     Eigenvalues ---    0.43553   0.48274   0.48275   0.48276   0.48277
 RFO step:  Lambda=-2.30150264D-04 EMin= 2.29268889D-02
 Linear search not attempted -- first point.
 Iteration  1 RMS(Cart)=  0.00491000 RMS(Int)=  0.00000029
 Iteration  2 RMS(Cart)=  0.00000019 RMS(Int)=  0.00000001
 Variable       Old X    -DE/DX   Delta X   Delta X   Delta X     New X
                                 (Linear)    (Quad)   (Total)
    R1        2.61647   0.00397   0.00000   0.00821   0.00821   2.62468
    R2        2.61649   0.00396   0.00000   0.00820   0.00820   2.62469
    R3        2.04179   0.00144   0.00000   0.00401   0.00401   2.04580
    R4        2.61645   0.00396   0.00000   0.00820   0.00820   2.62465
    R5        2.04175   0.00145   0.00000   0.00404   0.00404   2.04580
    R6        2.61648   0.00397   0.00000   0.00822   0.00822   2.62470
    R7        2.04179   0.00144   0.00000   0.00401   0.00401   2.04580
    R8        2.61644   0.00398   0.00000   0.00824   0.00824   2.62467
    R9        2.04178   0.00145   0.00000   0.00402   0.00402   2.04580
   R10        2.61648   0.00395   0.00000   0.00818   0.00818   2.62466
   R11        2.04179   0.00144   0.00000   0.00401   0.00401   2.04580
   R12        2.04178   0.00145   0.00000   0.00403   0.00403   2.04580
    A1        2.09438   0.00000   0.00000   0.00002   0.00002   2.09440
    A2        2.09444  -0.00001   0.00000  -0.00003  -0.00003   2.09441
    A3        2.09437   0.00000   0.00000   0.00001   0.00001   2.09438
    A4        2.09442  -0.00000   0.00000  -0.00001  -0.00001   2.09441
    A5        2.09438   0.00000   0.00000   0.00003   0.00003   2.09440
    A6        2.09439  -0.00000   0.00000  -0.00002  -0.00002   2.09437
    A7        2.09438  -0.00000   0.00000   0.00000   0.00000   2.09438
    A8        2.09437   0.00000   0.00000   0.00003   0.00003   2.09440
    A9        2.09444  -0.00000   0.00000  -0.00003  -0.00003   2.09441
   A10        2.09441  -0.00000   0.00000  -0.00001  -0.00001   2.09440
   A11        2.09435   0.00000   0.00000   0.00002   0.00002   2.09438
   A12        2.09443  -0.00000   0.00000  -0.00001  -0.00001   2.09441
   A13        2.09440   0.00000   0.00000   0.00001   0.00001   2.09441
   A14        2.09441   0.00000   0.00000   0.00001   0.00001   2.09441
   A15        2.09438  -0.00000   0.00000  -0.00001  -0.00001   2.09436
   A16        2.09439  -0.00000   0.00000  -0.00001  -0.00001   2.09438
   A17        2.09445  -0.00001   0.00000  -0.00003  -0.00003   2.09441
   A18        2.09435   0.00001   0.00000   0.00004   0.00004   2.09439
    D1       -0.00014   0.00000   0.00000   0.00021   0.00021   0.00006
    D2        3.14153   0.00000   0.00000   0.00008   0.00008  -3.14157
    D3        3.14144   0.00000   0.00000   0.00017   0.00017  -3.14157
    D4       -0.00007   0.00000   0.00000   0.00005   0.00005  -0.00002
    D5        0.00022  -0.00001   0.00000  -0.00030  -0.00030  -0.00008
    D6        3.14158   0.00000   0.00000   0.00001   0.00001   3.14159
    D7       -3.14137  -0.00001   0.00000  -0.00027  -0.00027   3.14155
    D8       -0.00001   0.00000   0.00000   0.00004   0.00004   0.00003
    D9        0.00002  -0.00000   0.00000  -0.00004  -0.00004  -0.00002
   D10       -3.14144  -0.00000   0.00000  -0.00017  -0.00017   3.14158
   D11        3.14153   0.00000   0.00000   0.00009   0.00009  -3.14157
   D12        0.00007  -0.00000   0.00000  -0.00005  -0.00005   0.00003
   D13        0.00003  -0.00000   0.00000  -0.00004  -0.00004  -0.00000
   D14        3.14144   0.00000   0.00000   0.00012   0.00012   3.14156
   D15        3.14149   0.00000   0.00000   0.00009   0.00009   3.14158
   D16       -0.00029   0.00001   0.00000   0.00025   0.00025  -0.00004
   D17        0.00004  -0.00000   0.00000  -0.00005  -0.00005  -0.00001
   D18       -3.14146  -0.00000   0.00000  -0.00012  -0.00012  -3.14157
   D19       -3.14137  -0.00000   0.00000  -0.00021  -0.00021  -3.14158
   D20        0.00032  -0.00001   0.00000  -0.00028  -0.00028   0.00004
   D21       -0.00017   0.00001   0.00000   0.00022   0.00022   0.00005
   D22       -3.14153  -0.00000   0.00000  -0.00008  -0.00008   3.14157
   D23        3.14133   0.00001   0.00000   0.00029   0.00029  -3.14157
   D24       -0.00003  -0.00000   0.00000  -0.00002  -0.00002  -0.00005
         Item               Value     Threshold  Converged?
 Maximum Force            0.003977     0.000450     NO 
 RMS     Force            0.001407     0.000300     NO 
 Maximum Displacement     0.012094     0.001800     NO 
 RMS     Displacement     0.004910     0.001200     NO 
 Predicted change in Energy=-1.151329D-04
 GradGradGradGradGradGradGradGradGradGradGradGradGradGradGradGradGradGrad

                          Input orientation:                          
 ---------------------------------------------------------------------
 Center     Atomic      Atomic             Coordinates (Angstroms)
 Number     Number       Type             X           Y           Z
 ---------------------------------------------------------------------
      1          6           0       -0.875733   -1.078043   -0.000032
      2          6           0        0.495755   -1.297422   -0.000042
      3          6           0        1.371490   -0.219392   -0.000012
      4          6           0        0.875730    1.078047    0.000001
      5          6           0       -0.495753    1.297426   -0.000020
      6          6           0       -1.371491    0.219393   -0.000069
      7          1           0       -1.558331   -1.918315   -0.000032
      8          1           0        0.882178   -2.308697   -0.000033
      9          1           0        2.440489   -0.390397   -0.000008
     10          1           0        1.558331    1.918318    0.000051
     11          1           0       -0.882186    2.308697   -0.000028
     12          1           0       -2.440490    0.390404   -0.000068
 ---------------------------------------------------------------------
                    Distance matrix (angstroms):
                    1          2          3          4          5
     1  C    0.000000
     2  C    1.388923   0.000000
     3  C    2.405679   1.388906   0.000000
     4  C    2.777831   2.405667   1.388930   0.000000
     5  C    2.405668   2.777827   2.405687   1.388918   0.000000
     6  C    1.388926   2.405688   2.777854   2.405679   1.388911
     7  H    1.082588   2.145874   3.386766   3.860419   3.386748
     8  H    2.145871   1.082590   2.145839   3.386751   3.860417
     9  H    3.386766   2.145852   1.082591   2.145880   3.386778
    10  H    3.860421   3.386747   2.145860   1.082589   2.145873
    11  H    3.386746   3.860416   3.386781   2.145872   1.082589
    12  H    2.145880   3.386782   3.860445   3.386764   2.145854
                    6          7          8          9         10
     6  C    0.000000
     7  H    2.145857   0.000000
     8  H    3.386778   2.471534   0.000000
     9  H    3.860445   4.280781   2.471479   0.000000
    10  H    3.386769   4.943009   4.280753   2.471512   0.000000
    11  H    2.145836   4.280748   4.943006   4.280803   2.471542
    12  H    1.082591   2.471515   4.280803   4.943036   4.280782
                   11         12
    11  H    0.000000
    12  H    2.471469   0.000000
 Stoichiometry    C6H6
 Framework group  C1[X(C6H6)]
 Deg. of freedom    30
 Full point group                 C1      NOp   1
 Largest Abelian subgroup         C1      NOp   1
 Largest concise Abelian subgroup C1      NOp   1
                         Standard orientation:                         
 ---------------------------------------------------------------------
 Center     Atomic      Atomic             Coordinates (Angstroms)
 Number     Number       Type             X           Y           Z
 ---------------------------------------------------------------------
      1          6           0       -0.417921    1.324548    0.000004
      2          6           0        0.938137    1.024197    0.000014
      3          6           0        1.356066   -0.300339   -0.000015
      4          6           0        0.417919   -1.324549   -0.000029
      5          6           0       -0.938135   -1.024199   -0.000008
      6          6           0       -1.356065    0.300341    0.000042
      7          1           0       -0.743681    2.356962    0.000004
      8          1           0        1.669374    1.822504    0.000005
      9          1           0        2.413043   -0.534436   -0.000020
     10          1           0        0.743683   -2.356963   -0.000079
     11          1           0       -1.669379   -1.822498    0.000000
     12          1           0       -2.413045    0.534433    0.000040
 ---------------------------------------------------------------------
 Rotational constants (GHZ):           5.7484988           5.7483767           2.8742189
 Standard basis: def2TZVP (5D, 7F)
 There are   252 symmetry adapted cartesian basis functions of A   symmetry.
 There are   222 symmetry adapted basis functions of A   symmetry.
   222 basis functions,   354 primitive gaussians,   252 cartesian basis functions
    21 alpha electrons       21 beta electrons
       nuclear repulsion energy       204.2680980970 Hartrees.
 NAtoms=   12 NActive=   12 NUniq=   12 SFac= 1.00D+00 NAtFMM=   60 NAOKFM=F Big=F
 Integral buffers will be    131072 words long.
 Raffenetti 2 integral format.
 Two-electron integral symmetry is turned on.
 One-electron integrals computed using PRISM.
   1 Symmetry operations used in ECPInt.
 ECPInt:  NShTT=    4095 NPrTT=   12396 LenC2=    4075 LenP2D=   10437.
 LDataN:  DoStor=T MaxTD1= 6 Len=  172
 NBasis=   222 RedAO= T EigKep=  9.86D-06  NBF=   222
 NBsUse=   222 1.00D-06 EigRej= -1.00D+00 NBFU=   222
 Initial guess from the checkpoint file:  "/home/svss/projects/Project-Philicity/GS/hydrocarbon/set-1/GS/mol_13_hc/mol_13_hc.chk"
 B after Tr=    -0.000000    0.000000    0.000000
         Rot=    0.997662   -0.000005   -0.000005    0.068337 Ang=  -7.84 deg.
 Keep R1 ints in memory in canonical form, NReq=315049625.
 Requested convergence on RMS density matrix=1.00D-08 within 128 cycles.
 Requested convergence on MAX density matrix=1.00D-06.
 Requested convergence on             energy=1.00D-06.
 No special actions if energy rises.
 SCF Done:  E(RM062X) =  -232.224618089     A.U. after    7 cycles
            NFock=  7  Conv=0.65D-08     -V/T= 2.0050
   1 Symmetry operations used in ECPInt.
 ECPInt:  NShTT=    4095 NPrTT=   12396 LenC2=    4075 LenP2D=   10437.
 LDataN:  DoStor=T MaxTD1= 7 Len=  274
 Calling FoFJK, ICntrl=      2127 FMM=F ISym2X=0 I1Cent= 0 IOpClX= 0 NMat=1 NMatS=1 NMatT=0.
 ***** Axes restored to original set *****
 -------------------------------------------------------------------
 Center     Atomic                   Forces (Hartrees/Bohr)
 Number     Number              X              Y              Z
 -------------------------------------------------------------------
      1        6           0.000204023    0.000278301   -0.000005829
      2        6          -0.000059086    0.000363840    0.000004407
      3        6          -0.000378528    0.000064094   -0.000001923
      4        6          -0.000200884   -0.000279133    0.000002223
      5        6           0.000054641   -0.000366198   -0.000004523
      6        6           0.000379515   -0.000060838    0.000007539
      7        1           0.000083137    0.000091752   -0.000000214
      8        1          -0.000052435    0.000109636   -0.000000549
      9        1          -0.000116625    0.000032041    0.000000378
     10        1          -0.000083777   -0.000092398   -0.000001047
     11        1           0.000053155   -0.000108659    0.000000759
     12        1           0.000116863   -0.000032437   -0.000001222
 -------------------------------------------------------------------
 Cartesian Forces:  Max     0.000379515 RMS     0.000157691

 GradGradGradGradGradGradGradGradGradGradGradGradGradGradGradGradGradGrad
 Berny optimization.
 Using GEDIIS/GDIIS optimizer.
 FormGI is forming the generalized inverse of G from B-inverse, IUseBI=4.
 Internal  Forces:  Max     0.000504059 RMS     0.000166904
 Search for a local minimum.
 Step number   2 out of a maximum of   64
 All quantities printed in internal units (Hartrees-Bohrs-Radians)
 Mixed Optimization -- En-DIIS/RFO-DIIS
 Update second derivatives using D2CorX and points    1    2
 DE= -1.03D-04 DEPred=-1.15D-04 R= 8.98D-01
 TightC=F SS=  1.41D+00  RLast= 2.24D-02 DXNew= 5.0454D-01 6.7210D-02
 Trust test= 8.98D-01 RLast= 2.24D-02 DXMaxT set to 3.00D-01
 ITU=  1  0
 Use linear search instead of GDIIS.
     Eigenvalues ---    0.02293   0.02293   0.02293   0.02293   0.02293
     Eigenvalues ---    0.02293   0.02293   0.02293   0.02293   0.16000
     Eigenvalues ---    0.16000   0.16000   0.16000   0.16000   0.16000
     Eigenvalues ---    0.22000   0.22000   0.22000   0.35938   0.35938
     Eigenvalues ---    0.35938   0.35939   0.35940   0.36126   0.43577
     Eigenvalues ---    0.43578   0.48268   0.48274   0.48276   0.53658
 RFO step:  Lambda=-5.27106323D-08 EMin= 2.29268871D-02
 Quartic linear search produced a step of -0.10071.
 Iteration  1 RMS(Cart)=  0.00048260 RMS(Int)=  0.00000001
 Iteration  2 RMS(Cart)=  0.00000001 RMS(Int)=  0.00000000
 Variable       Old X    -DE/DX   Delta X   Delta X   Delta X     New X
                                 (Linear)    (Quad)   (Total)
    R1        2.62468  -0.00046  -0.00083   0.00001  -0.00082   2.62387
    R2        2.62469  -0.00050  -0.00083  -0.00006  -0.00089   2.62380
    R3        2.04580  -0.00012  -0.00040   0.00012  -0.00029   2.04551
    R4        2.62465  -0.00050  -0.00083  -0.00008  -0.00090   2.62375
    R5        2.04580  -0.00012  -0.00041   0.00013  -0.00028   2.04552
    R6        2.62470  -0.00050  -0.00083  -0.00006  -0.00089   2.62381
    R7        2.04580  -0.00012  -0.00040   0.00013  -0.00028   2.04552
    R8        2.62467  -0.00045  -0.00083   0.00002  -0.00081   2.62386
    R9        2.04580  -0.00012  -0.00041   0.00012  -0.00029   2.04551
   R10        2.62466  -0.00050  -0.00082  -0.00008  -0.00091   2.62376
   R11        2.04580  -0.00012  -0.00040   0.00012  -0.00028   2.04552
   R12        2.04580  -0.00012  -0.00041   0.00013  -0.00028   2.04552
    A1        2.09440   0.00000  -0.00000   0.00000   0.00000   2.09440
    A2        2.09441   0.00000   0.00000   0.00002   0.00002   2.09444
    A3        2.09438  -0.00000  -0.00000  -0.00002  -0.00003   2.09435
    A4        2.09441   0.00000   0.00000   0.00000   0.00000   2.09441
    A5        2.09440  -0.00002  -0.00000  -0.00012  -0.00012   2.09428
    A6        2.09437   0.00002   0.00000   0.00012   0.00012   2.09449
    A7        2.09438  -0.00000  -0.00000  -0.00000  -0.00000   2.09438
    A8        2.09440   0.00000  -0.00000   0.00002   0.00001   2.09441
    A9        2.09441  -0.00000   0.00000  -0.00001  -0.00001   2.09440
   A10        2.09440   0.00000   0.00000  -0.00000   0.00000   2.09440
   A11        2.09438  -0.00000  -0.00000  -0.00002  -0.00002   2.09435
   A12        2.09441   0.00000   0.00000   0.00002   0.00002   2.09444
   A13        2.09441   0.00000  -0.00000   0.00000   0.00000   2.09441
   A14        2.09441  -0.00002  -0.00000  -0.00013  -0.00013   2.09429
   A15        2.09436   0.00002   0.00000   0.00012   0.00013   2.09449
   A16        2.09438  -0.00000   0.00000  -0.00000  -0.00000   2.09438
   A17        2.09441  -0.00000   0.00000  -0.00002  -0.00001   2.09440
   A18        2.09439   0.00000  -0.00000   0.00002   0.00002   2.09441
    D1        0.00006  -0.00000  -0.00002  -0.00003  -0.00005   0.00001
    D2       -3.14157  -0.00000  -0.00001  -0.00001  -0.00002  -3.14159
    D3       -3.14157  -0.00000  -0.00002   0.00001  -0.00001  -3.14158
    D4       -0.00002   0.00000  -0.00000   0.00003   0.00002   0.00001
    D5       -0.00008   0.00000   0.00003   0.00003   0.00006  -0.00002
    D6        3.14159   0.00000  -0.00000   0.00001   0.00001  -3.14159
    D7        3.14155   0.00000   0.00003  -0.00001   0.00002   3.14157
    D8        0.00003  -0.00000  -0.00000  -0.00003  -0.00003   0.00000
    D9       -0.00002   0.00000   0.00000   0.00002   0.00002  -0.00000
   D10        3.14158   0.00000   0.00002  -0.00001   0.00001   3.14159
   D11       -3.14157  -0.00000  -0.00001  -0.00001  -0.00001  -3.14158
   D12        0.00003  -0.00000   0.00000  -0.00003  -0.00003   0.00000
   D13       -0.00000   0.00000   0.00000  -0.00000   0.00000  -0.00000
   D14        3.14156   0.00000  -0.00001   0.00004   0.00003  -3.14159
   D15        3.14158   0.00000  -0.00001   0.00002   0.00001   3.14159
   D16       -0.00004   0.00000  -0.00003   0.00007   0.00004   0.00001
   D17       -0.00001   0.00000   0.00001   0.00001   0.00001  -0.00000
   D18       -3.14157  -0.00000   0.00001  -0.00003  -0.00002   3.14159
   D19       -3.14158  -0.00000   0.00002  -0.00004  -0.00002   3.14159
   D20        0.00004  -0.00000   0.00003  -0.00008  -0.00005  -0.00001
   D21        0.00005  -0.00000  -0.00002  -0.00002  -0.00004   0.00001
   D22        3.14157   0.00000   0.00001   0.00000   0.00001   3.14158
   D23       -3.14157  -0.00000  -0.00003   0.00002  -0.00001  -3.14158
   D24       -0.00005   0.00000   0.00000   0.00004   0.00004  -0.00001
         Item               Value     Threshold  Converged?
 Maximum Force            0.000504     0.000450     NO 
 RMS     Force            0.000167     0.000300     YES
 Maximum Displacement     0.001104     0.001800     YES
 RMS     Displacement     0.000483     0.001200     YES
 Predicted change in Energy=-1.422500D-06
 GradGradGradGradGradGradGradGradGradGradGradGradGradGradGradGradGradGrad

                          Input orientation:                          
 ---------------------------------------------------------------------
 Center     Atomic      Atomic             Coordinates (Angstroms)
 Number     Number       Type             X           Y           Z
 ---------------------------------------------------------------------
      1          6           0       -0.875437   -1.077684   -0.000047
      2          6           0        0.495627   -1.296974   -0.000032
      3          6           0        1.371046   -0.219302   -0.000007
      4          6           0        0.875435    1.077688    0.000000
      5          6           0       -0.495627    1.296978   -0.000022
      6          6           0       -1.371048    0.219304   -0.000053
      7          1           0       -1.557947   -1.917831   -0.000052
      8          1           0        0.881890   -2.308152   -0.000031
      9          1           0        2.439905   -0.390256    0.000010
     10          1           0        1.557947    1.917834    0.000018
     11          1           0       -0.881894    2.308154   -0.000014
     12          1           0       -2.439906    0.390261   -0.000061
 ---------------------------------------------------------------------
                    Distance matrix (angstroms):
                    1          2          3          4          5
     1  C    0.000000
     2  C    1.388490   0.000000
     3  C    2.404892   1.388429   0.000000
     4  C    2.776901   2.404844   1.388458   0.000000
     5  C    2.404844   2.776900   2.404907   1.388488   0.000000
     6  C    1.388456   2.404907   2.776951   2.404892   1.388432
     7  H    1.082436   2.145374   3.385854   3.859338   3.385783
     8  H    2.145286   1.082441   2.145359   3.385846   3.859342
     9  H    3.385860   2.145310   1.082443   2.145326   3.385868
    10  H    3.859338   3.385782   2.145294   1.082436   2.145374
    11  H    3.385844   3.859341   3.385820   2.145286   1.082441
    12  H    2.145326   3.385870   3.859394   3.385859   2.145311
                    6          7          8          9         10
     6  C    0.000000
     7  H    2.145293   0.000000
     8  H    3.385818   2.470862   0.000000
     9  H    3.859394   4.279756   2.470979   0.000000
    10  H    3.385855   4.941774   4.279721   2.470856   0.000000
    11  H    2.145359   4.279720   4.941783   4.279692   2.470865
    12  H    1.082443   2.470858   4.279692   4.941838   4.279756
                   11         12
    11  H    0.000000
    12  H    2.470975   0.000000
 Stoichiometry    C6H6
 Framework group  C1[X(C6H6)]
 Deg. of freedom    30
 Full point group                 C1      NOp   1
 Largest Abelian subgroup         C1      NOp   1
 Largest concise Abelian subgroup C1      NOp   1
                         Standard orientation:                         
 ---------------------------------------------------------------------
 Center     Atomic      Atomic             Coordinates (Angstroms)
 Number     Number       Type             X           Y           Z
 ---------------------------------------------------------------------
      1          6           0       -0.734027    1.178558    0.000021
      2          6           0        0.653688    1.224943    0.000006
      3          6           0        1.387700    0.046400   -0.000019
      4          6           0        0.734026   -1.178559   -0.000026
      5          6           0       -0.653687   -1.224944   -0.000004
      6          6           0       -1.387700   -0.046399    0.000027
      7          1           0       -1.306296    2.097349    0.000026
      8          1           0        1.163183    2.179979    0.000005
      9          1           0        2.469539    0.082559   -0.000036
     10          1           0        1.306297   -2.097348   -0.000044
     11          1           0       -1.163186   -2.179978   -0.000012
     12          1           0       -2.469539   -0.082561    0.000035
 ---------------------------------------------------------------------
 Rotational constants (GHZ):           5.7521832           5.7519018           2.8760213
 Standard basis: def2TZVP (5D, 7F)
 There are   252 symmetry adapted cartesian basis functions of A   symmetry.
 There are   222 symmetry adapted basis functions of A   symmetry.
   222 basis functions,   354 primitive gaussians,   252 cartesian basis functions
    21 alpha electrons       21 beta electrons
       nuclear repulsion energy       204.3298190930 Hartrees.
 NAtoms=   12 NActive=   12 NUniq=   12 SFac= 1.00D+00 NAtFMM=   60 NAOKFM=F Big=F
 Integral buffers will be    131072 words long.
 Raffenetti 2 integral format.
 Two-electron integral symmetry is turned on.
 One-electron integrals computed using PRISM.
   1 Symmetry operations used in ECPInt.
 ECPInt:  NShTT=    4095 NPrTT=   12396 LenC2=    4075 LenP2D=   10437.
 LDataN:  DoStor=T MaxTD1= 6 Len=  172
 NBasis=   222 RedAO= T EigKep=  9.82D-06  NBF=   222
 NBsUse=   222 1.00D-06 EigRej= -1.00D+00 NBFU=   222
 Initial guess from the checkpoint file:  "/home/svss/projects/Project-Philicity/GS/hydrocarbon/set-1/GS/mol_13_hc/mol_13_hc.chk"
 B after Tr=    -0.000000   -0.000000    0.000000
         Rot=    0.992111   -0.000000   -0.000000   -0.125364 Ang= -14.40 deg.
 Keep R1 ints in memory in canonical form, NReq=315049625.
 Requested convergence on RMS density matrix=1.00D-08 within 128 cycles.
 Requested convergence on MAX density matrix=1.00D-06.
 Requested convergence on             energy=1.00D-06.
 No special actions if energy rises.
 SCF Done:  E(RM062X) =  -232.224618081     A.U. after    6 cycles
            NFock=  6  Conv=0.26D-08     -V/T= 2.0050
   1 Symmetry operations used in ECPInt.
 ECPInt:  NShTT=    4095 NPrTT=   12396 LenC2=    4075 LenP2D=   10437.
 LDataN:  DoStor=T MaxTD1= 7 Len=  274
 Calling FoFJK, ICntrl=      2127 FMM=F ISym2X=0 I1Cent= 0 IOpClX= 0 NMat=1 NMatS=1 NMatT=0.
 ***** Axes restored to original set *****
 -------------------------------------------------------------------
 Center     Atomic                   Forces (Hartrees/Bohr)
 Number     Number              X              Y              Z
 -------------------------------------------------------------------
      1        6           0.000028556   -0.000004608   -0.000000692
      2        6           0.000001502    0.000007666    0.000000827
      3        6          -0.000016727   -0.000004404   -0.000000078
      4        6          -0.000026962    0.000003602   -0.000000537
      5        6          -0.000003753   -0.000008693   -0.000000518
      6        6           0.000017187    0.000006375    0.000001961
      7        1           0.000005205    0.000006402   -0.000000485
      8        1          -0.000000179    0.000010724   -0.000000071
      9        1          -0.000002468    0.000010624   -0.000000132
     10        1          -0.000005378   -0.000006403    0.000000315
     11        1           0.000000516   -0.000010459   -0.000000199
     12        1           0.000002502   -0.000010826   -0.000000392
 -------------------------------------------------------------------
 Cartesian Forces:  Max     0.000028556 RMS     0.000009089

 GradGradGradGradGradGradGradGradGradGradGradGradGradGradGradGradGradGrad
 Berny optimization.
 Using GEDIIS/GDIIS optimizer.
 FormGI is forming the generalized inverse of G from B-inverse, IUseBI=4.
 Internal  Forces:  Max     0.000027064 RMS     0.000008172
 Search for a local minimum.
 Step number   3 out of a maximum of   64
 All quantities printed in internal units (Hartrees-Bohrs-Radians)
 Mixed Optimization -- En-DIIS/RFO-DIIS
 Swapping is turned off.
 Update second derivatives using D2CorX and points    1    2    3
 DE=  8.48D-09 DEPred=-1.42D-06 R=-5.96D-03
 Trust test=-5.96D-03 RLast= 2.26D-03 DXMaxT set to 1.50D-01
 ITU= -1  1  0
     Eigenvalues ---    0.02293   0.02293   0.02293   0.02293   0.02293
     Eigenvalues ---    0.02293   0.02293   0.02293   0.02293   0.15954
     Eigenvalues ---    0.16000   0.16000   0.16000   0.16000   0.16011
     Eigenvalues ---    0.21993   0.22000   0.22000   0.35929   0.35938
     Eigenvalues ---    0.35938   0.35938   0.35939   0.36154   0.43574
     Eigenvalues ---    0.43575   0.48164   0.48270   0.48276   0.53380
 En-DIIS/RFO-DIIS/Sim-DIIS IScMMF=       -3 using points:     3    2
 RFO step:  Lambda=-8.59513264D-09.
 DidBck=F Rises=F RFO-DIIS coefs:    1.04873   -0.04873
 Iteration  1 RMS(Cart)=  0.00003391 RMS(Int)=  0.00000000
 Iteration  2 RMS(Cart)=  0.00000000 RMS(Int)=  0.00000000
 Variable       Old X    -DE/DX   Delta X   Delta X   Delta X     New X
                                 (Linear)    (Quad)   (Total)
    R1        2.62387  -0.00003  -0.00004  -0.00001  -0.00005   2.62381
    R2        2.62380  -0.00001  -0.00004   0.00003  -0.00001   2.62379
    R3        2.04551  -0.00001  -0.00001  -0.00001  -0.00002   2.04549
    R4        2.62375  -0.00002  -0.00004  -0.00000  -0.00004   2.62371
    R5        2.04552  -0.00001  -0.00001  -0.00001  -0.00003   2.04549
    R6        2.62381  -0.00001  -0.00004   0.00003  -0.00002   2.62379
    R7        2.04552  -0.00000  -0.00001   0.00000  -0.00001   2.04551
    R8        2.62386  -0.00003  -0.00004  -0.00001  -0.00005   2.62381
    R9        2.04551  -0.00001  -0.00001  -0.00001  -0.00002   2.04549
   R10        2.62376  -0.00002  -0.00004  -0.00000  -0.00005   2.62371
   R11        2.04552  -0.00001  -0.00001  -0.00001  -0.00003   2.04549
   R12        2.04552  -0.00000  -0.00001   0.00000  -0.00001   2.04551
    A1        2.09440   0.00000   0.00000   0.00002   0.00002   2.09442
    A2        2.09444   0.00000   0.00000   0.00003   0.00003   2.09447
    A3        2.09435  -0.00001  -0.00000  -0.00005  -0.00005   2.09430
    A4        2.09441  -0.00001   0.00000  -0.00004  -0.00004   2.09437
    A5        2.09428   0.00000  -0.00001   0.00001  -0.00000   2.09428
    A6        2.09449   0.00001   0.00001   0.00003   0.00004   2.09453
    A7        2.09438   0.00000  -0.00000   0.00002   0.00002   2.09440
    A8        2.09441   0.00000   0.00000   0.00002   0.00002   2.09443
    A9        2.09440  -0.00001  -0.00000  -0.00003  -0.00003   2.09436
   A10        2.09440   0.00000   0.00000   0.00002   0.00002   2.09442
   A11        2.09435  -0.00001  -0.00000  -0.00005  -0.00005   2.09430
   A12        2.09444   0.00000   0.00000   0.00003   0.00003   2.09447
   A13        2.09441  -0.00001   0.00000  -0.00004  -0.00004   2.09437
   A14        2.09429   0.00000  -0.00001   0.00000  -0.00000   2.09428
   A15        2.09449   0.00001   0.00001   0.00003   0.00004   2.09453
   A16        2.09438   0.00000  -0.00000   0.00002   0.00002   2.09440
   A17        2.09440  -0.00001  -0.00000  -0.00003  -0.00003   2.09437
   A18        2.09441   0.00000   0.00000   0.00002   0.00002   2.09443
    D1        0.00001  -0.00000  -0.00000  -0.00001  -0.00002  -0.00000
    D2       -3.14159  -0.00000  -0.00000  -0.00000  -0.00000   3.14159
    D3       -3.14158  -0.00000  -0.00000  -0.00002  -0.00002   3.14159
    D4        0.00001  -0.00000   0.00000  -0.00001  -0.00000   0.00000
    D5       -0.00002   0.00000   0.00000   0.00002   0.00002   0.00000
    D6       -3.14159  -0.00000   0.00000  -0.00000  -0.00000   3.14159
    D7        3.14157   0.00000   0.00000   0.00002   0.00002  -3.14159
    D8        0.00000  -0.00000  -0.00000  -0.00000  -0.00000  -0.00000
    D9       -0.00000   0.00000   0.00000   0.00000   0.00000   0.00000
   D10        3.14159   0.00000   0.00000   0.00001   0.00001  -3.14159
   D11       -3.14158  -0.00000  -0.00000  -0.00001  -0.00001   3.14159
   D12        0.00000  -0.00000  -0.00000  -0.00000  -0.00000  -0.00000
   D13       -0.00000   0.00000   0.00000   0.00000   0.00000   0.00000
   D14       -3.14159  -0.00000   0.00000  -0.00000  -0.00000  -3.14159
   D15        3.14159  -0.00000   0.00000  -0.00000  -0.00000   3.14159
   D16        0.00001  -0.00000   0.00000  -0.00001  -0.00001  -0.00000
   D17       -0.00000   0.00000   0.00000   0.00000   0.00000   0.00000
   D18        3.14159   0.00000  -0.00000   0.00000   0.00000  -3.14159
   D19        3.14159   0.00000  -0.00000   0.00001   0.00001  -3.14159
   D20       -0.00001   0.00000  -0.00000   0.00001   0.00001   0.00000
   D21        0.00001  -0.00000  -0.00000  -0.00001  -0.00001  -0.00000
   D22        3.14158   0.00000   0.00000   0.00001   0.00001  -3.14159
   D23       -3.14158  -0.00000  -0.00000  -0.00001  -0.00002   3.14159
   D24       -0.00001   0.00000   0.00000   0.00001   0.00001   0.00000
         Item               Value     Threshold  Converged?
 Maximum Force            0.000027     0.000450     YES
 RMS     Force            0.000008     0.000300     YES
 Maximum Displacement     0.000104     0.001800     YES
 RMS     Displacement     0.000034     0.001200     YES
 Predicted change in Energy=-4.685790D-09
 Optimization completed.
    -- Stationary point found.
                           ----------------------------
                           !   Optimized Parameters   !
                           ! (Angstroms and Degrees)  !
 --------------------------                            --------------------------
 ! Name  Definition              Value          Derivative Info.                !
 --------------------------------------------------------------------------------
 ! R1    R(1,2)                  1.3885         -DE/DX =    0.0                 !
 ! R2    R(1,6)                  1.3885         -DE/DX =    0.0                 !
 ! R3    R(1,7)                  1.0824         -DE/DX =    0.0                 !
 ! R4    R(2,3)                  1.3884         -DE/DX =    0.0                 !
 ! R5    R(2,8)                  1.0824         -DE/DX =    0.0                 !
 ! R6    R(3,4)                  1.3885         -DE/DX =    0.0                 !
 ! R7    R(3,9)                  1.0824         -DE/DX =    0.0                 !
 ! R8    R(4,5)                  1.3885         -DE/DX =    0.0                 !
 ! R9    R(4,10)                 1.0824         -DE/DX =    0.0                 !
 ! R10   R(5,6)                  1.3884         -DE/DX =    0.0                 !
 ! R11   R(5,11)                 1.0824         -DE/DX =    0.0                 !
 ! R12   R(6,12)                 1.0824         -DE/DX =    0.0                 !
 ! A1    A(2,1,6)              120.0001         -DE/DX =    0.0                 !
 ! A2    A(2,1,7)              120.0023         -DE/DX =    0.0                 !
 ! A3    A(6,1,7)              119.9976         -DE/DX =    0.0                 !
 ! A4    A(1,2,3)              120.0008         -DE/DX =    0.0                 !
 ! A5    A(1,2,8)              119.9935         -DE/DX =    0.0                 !
 ! A6    A(3,2,8)              120.0057         -DE/DX =    0.0                 !
 ! A7    A(2,3,4)              119.9991         -DE/DX =    0.0                 !
 ! A8    A(2,3,9)              120.0009         -DE/DX =    0.0                 !
 ! A9    A(4,3,9)              120.0            -DE/DX =    0.0                 !
 ! A10   A(3,4,5)              120.0001         -DE/DX =    0.0                 !
 ! A11   A(3,4,10)             119.9974         -DE/DX =    0.0                 !
 ! A12   A(5,4,10)             120.0025         -DE/DX =    0.0                 !
 ! A13   A(4,5,6)              120.0008         -DE/DX =    0.0                 !
 ! A14   A(4,5,11)             119.9938         -DE/DX =    0.0                 !
 ! A15   A(6,5,11)             120.0054         -DE/DX =    0.0                 !
 ! A16   A(1,6,5)              119.9991         -DE/DX =    0.0                 !
 ! A17   A(1,6,12)             120.0002         -DE/DX =    0.0                 !
 ! A18   A(5,6,12)             120.0007         -DE/DX =    0.0                 !
 ! D1    D(6,1,2,3)              0.0007         -DE/DX =    0.0                 !
 ! D2    D(6,1,2,8)            180.0002         -DE/DX =    0.0                 !
 ! D3    D(7,1,2,3)            180.0008         -DE/DX =    0.0                 !
 ! D4    D(7,1,2,8)              0.0003         -DE/DX =    0.0                 !
 ! D5    D(2,1,6,5)             -0.001          -DE/DX =    0.0                 !
 ! D6    D(2,1,6,12)           180.0002         -DE/DX =    0.0                 !
 ! D7    D(7,1,6,5)           -180.0011         -DE/DX =    0.0                 !
 ! D8    D(7,1,6,12)             0.0001         -DE/DX =    0.0                 !
 ! D9    D(1,2,3,4)             -0.0001         -DE/DX =    0.0                 !
 ! D10   D(1,2,3,9)           -180.0003         -DE/DX =    0.0                 !
 ! D11   D(8,2,3,4)            180.0004         -DE/DX =    0.0                 !
 ! D12   D(8,2,3,9)              0.0002         -DE/DX =    0.0                 !
 ! D13   D(2,3,4,5)             -0.0003         -DE/DX =    0.0                 !
 ! D14   D(2,3,4,10)          -179.9999         -DE/DX =    0.0                 !
 ! D15   D(9,3,4,5)            180.0            -DE/DX =    0.0                 !
 ! D16   D(9,3,4,10)             0.0003         -DE/DX =    0.0                 !
 ! D17   D(3,4,5,6)              0.0            -DE/DX =    0.0                 !
 ! D18   D(3,4,5,11)          -180.0001         -DE/DX =    0.0                 !
 ! D19   D(10,4,5,6)          -180.0004         -DE/DX =    0.0                 !
 ! D20   D(10,4,5,11)           -0.0004         -DE/DX =    0.0                 !
 ! D21   D(4,5,6,1)              0.0007         -DE/DX =    0.0                 !
 ! D22   D(4,5,6,12)          -180.0006         -DE/DX =    0.0                 !
 ! D23   D(11,5,6,1)           180.0007         -DE/DX =    0.0                 !
 ! D24   D(11,5,6,12)           -0.0005         -DE/DX =    0.0                 !
 --------------------------------------------------------------------------------
 GradGradGradGradGradGradGradGradGradGradGradGradGradGradGradGradGradGrad

                          Input orientation:                          
 ---------------------------------------------------------------------
 Center     Atomic      Atomic             Coordinates (Angstroms)
 Number     Number       Type             X           Y           Z
 ---------------------------------------------------------------------
      1          6           0       -0.875437   -1.077684   -0.000047
      2          6           0        0.495627   -1.296974   -0.000032
      3          6           0        1.371046   -0.219302   -0.000007
      4          6           0        0.875435    1.077688    0.000000
      5          6           0       -0.495627    1.296978   -0.000022
      6          6           0       -1.371048    0.219304   -0.000053
      7          1           0       -1.557947   -1.917831   -0.000052
      8          1           0        0.881890   -2.308152   -0.000031
      9          1           0        2.439905   -0.390256    0.000010
     10          1           0        1.557947    1.917834    0.000018
     11          1           0       -0.881894    2.308154   -0.000014
     12          1           0       -2.439906    0.390261   -0.000061
 ---------------------------------------------------------------------
                    Distance matrix (angstroms):
                    1          2          3          4          5
     1  C    0.000000
     2  C    1.388490   0.000000
     3  C    2.404892   1.388429   0.000000
     4  C    2.776901   2.404844   1.388458   0.000000
     5  C    2.404844   2.776900   2.404907   1.388488   0.000000
     6  C    1.388456   2.404907   2.776951   2.404892   1.388432
     7  H    1.082436   2.145374   3.385854   3.859338   3.385783
     8  H    2.145286   1.082441   2.145359   3.385846   3.859342
     9  H    3.385860   2.145310   1.082443   2.145326   3.385868
    10  H    3.859338   3.385782   2.145294   1.082436   2.145374
    11  H    3.385844   3.859341   3.385820   2.145286   1.082441
    12  H    2.145326   3.385870   3.859394   3.385859   2.145311
                    6          7          8          9         10
     6  C    0.000000
     7  H    2.145293   0.000000
     8  H    3.385818   2.470862   0.000000
     9  H    3.859394   4.279756   2.470979   0.000000
    10  H    3.385855   4.941774   4.279721   2.470856   0.000000
    11  H    2.145359   4.279720   4.941783   4.279692   2.470865
    12  H    1.082443   2.470858   4.279692   4.941838   4.279756
                   11         12
    11  H    0.000000
    12  H    2.470975   0.000000
 Stoichiometry    C6H6
 Framework group  C1[X(C6H6)]
 Deg. of freedom    30
 Full point group                 C1      NOp   1
 Largest Abelian subgroup         C1      NOp   1
 Largest concise Abelian subgroup C1      NOp   1
                         Standard orientation:                         
 ---------------------------------------------------------------------
 Center     Atomic      Atomic             Coordinates (Angstroms)
 Number     Number       Type             X           Y           Z
 ---------------------------------------------------------------------
      1          6           0       -0.734027    1.178558    0.000021
      2          6           0        0.653688    1.224943    0.000006
      3          6           0        1.387700    0.046400   -0.000019
      4          6           0        0.734026   -1.178559   -0.000026
      5          6           0       -0.653687   -1.224944   -0.000004
      6          6           0       -1.387700   -0.046399    0.000027
      7          1           0       -1.306296    2.097349    0.000026
      8          1           0        1.163183    2.179979    0.000005
      9          1           0        2.469539    0.082559   -0.000036
     10          1           0        1.306297   -2.097348   -0.000044
     11          1           0       -1.163186   -2.179978   -0.000012
     12          1           0       -2.469539   -0.082561    0.000035
 ---------------------------------------------------------------------
 Rotational constants (GHZ):           5.7521832           5.7519018           2.8760213

 **********************************************************************

            Population analysis using the SCF Density.

 **********************************************************************

 Orbital symmetries:
       Occupied  (A) (A) (A) (A) (A) (A) (A) (A) (A) (A) (A) (A)
                 (A) (A) (A) (A) (A) (A) (A) (A) (A)
       Virtual   (A) (A) (A) (A) (A) (A) (A) (A) (A) (A) (A) (A)
                 (A) (A) (A) (A) (A) (A) (A) (A) (A) (A) (A) (A)
                 (A) (A) (A) (A) (A) (A) (A) (A) (A) (A) (A) (A)
                 (A) (A) (A) (A) (A) (A) (A) (A) (A) (A) (A) (A)
                 (A) (A) (A) (A) (A) (A) (A) (A) (A) (A) (A) (A)
                 (A) (A) (A) (A) (A) (A) (A) (A) (A) (A) (A) (A)
                 (A) (A) (A) (A) (A) (A) (A) (A) (A) (A) (A) (A)
                 (A) (A) (A) (A) (A) (A) (A) (A) (A) (A) (A) (A)
                 (A) (A) (A) (A) (A) (A) (A) (A) (A) (A) (A) (A)
                 (A) (A) (A) (A) (A) (A) (A) (A) (A) (A) (A) (A)
                 (A) (A) (A) (A) (A) (A) (A) (A) (A) (A) (A) (A)
                 (A) (A) (A) (A) (A) (A) (A) (A) (A) (A) (A) (A)
                 (A) (A) (A) (A) (A) (A) (A) (A) (A) (A) (A) (A)
                 (A) (A) (A) (A) (A) (A) (A) (A) (A) (A) (A) (A)
                 (A) (A) (A) (A) (A) (A) (A) (A) (A) (A) (A) (A)
                 (A) (A) (A) (A) (A) (A) (A) (A) (A) (A) (A) (A)
                 (A) (A) (A) (A) (A) (A) (A) (A) (A)
 The electronic state is 1-A.
 Alpha  occ. eigenvalues --  -10.54122 -10.54086 -10.54086 -10.54004 -10.54004
 Alpha  occ. eigenvalues --  -10.53964  -0.96103  -0.84341  -0.84339  -0.68608
 Alpha  occ. eigenvalues --   -0.68608  -0.60162  -0.53285  -0.51387  -0.48847
 Alpha  occ. eigenvalues --   -0.48845  -0.44108  -0.40240  -0.40239  -0.30896
 Alpha  occ. eigenvalues --   -0.30894
 Alpha virt. eigenvalues --    0.02331   0.02332   0.08161   0.10999   0.10999
 Alpha virt. eigenvalues --    0.13612   0.13613   0.15414   0.17967   0.19322
 Alpha virt. eigenvalues --    0.24089   0.24450   0.24755   0.24756   0.26557
 Alpha virt. eigenvalues --    0.26558   0.28416   0.28416   0.30875   0.30877
 Alpha virt. eigenvalues --    0.36691   0.36692   0.36887   0.39615   0.39616
 Alpha virt. eigenvalues --    0.41852   0.44405   0.44405   0.44706   0.45920
 Alpha virt. eigenvalues --    0.47409   0.47410   0.49876   0.50188   0.52281
 Alpha virt. eigenvalues --    0.53543   0.53546   0.54895   0.54896   0.68513
 Alpha virt. eigenvalues --    0.68514   0.69507   0.74133   0.74222   0.78967
 Alpha virt. eigenvalues --    0.78968   0.78997   0.78998   0.85394   0.89091
 Alpha virt. eigenvalues --    0.89091   0.89792   0.91952   0.93681   1.04408
 Alpha virt. eigenvalues --    1.04409   1.04731   1.04732   1.09446   1.09447
 Alpha virt. eigenvalues --    1.21354   1.21355   1.21604   1.24041   1.24043
 Alpha virt. eigenvalues --    1.25997   1.25997   1.29006   1.29007   1.33075
 Alpha virt. eigenvalues --    1.41486   1.42196   1.45223   1.49005   1.49005
 Alpha virt. eigenvalues --    1.52954   1.52955   1.54102   1.54103   1.61707
 Alpha virt. eigenvalues --    1.64494   1.69814   1.72217   1.72217   1.72621
 Alpha virt. eigenvalues --    1.72852   1.72852   1.75777   1.75778   1.81121
 Alpha virt. eigenvalues --    1.89130   1.93996   1.93997   2.06760   2.06762
 Alpha virt. eigenvalues --    2.07950   2.10596   2.10600   2.12370   2.19605
 Alpha virt. eigenvalues --    2.19609   2.24501   2.27026   2.27027   2.35402
 Alpha virt. eigenvalues --    2.48038   2.49370   2.49372   2.57196   2.58266
 Alpha virt. eigenvalues --    2.58268   2.58415   2.60384   2.67461   2.67463
 Alpha virt. eigenvalues --    2.68407   2.68408   2.69462   2.70211   2.70213
 Alpha virt. eigenvalues --    2.74340   2.75908   2.75909   2.80845   2.81370
 Alpha virt. eigenvalues --    2.81373   2.85027   2.85029   2.86022   2.86262
 Alpha virt. eigenvalues --    2.86265   2.91721   3.02942   3.08936   3.08939
 Alpha virt. eigenvalues --    3.09587   3.09587   3.15141   3.15142   3.15267
 Alpha virt. eigenvalues --    3.15268   3.18926   3.20827   3.20831   3.24319
 Alpha virt. eigenvalues --    3.26358   3.26360   3.31832   3.35242   3.38721
 Alpha virt. eigenvalues --    3.38723   3.39747   3.43893   3.43894   3.49613
 Alpha virt. eigenvalues --    3.50479   3.52500   3.52500   3.60038   3.62385
 Alpha virt. eigenvalues --    3.62386   3.74650   3.74658   3.75137   3.80398
 Alpha virt. eigenvalues --    3.86448   4.00167   4.00173   4.05650   4.07608
 Alpha virt. eigenvalues --    4.07612   4.10458   4.16168   4.16818   4.16825
 Alpha virt. eigenvalues --    4.19341   4.19344   4.26913   4.26920   4.27668
 Alpha virt. eigenvalues --    4.27675   4.57991   4.59156   4.59157   4.61589
 Alpha virt. eigenvalues --    4.78847   4.78850   4.86260   4.86269   5.16881
 Alpha virt. eigenvalues --    5.16883   5.22009   5.22060   5.38406   5.54712
 Alpha virt. eigenvalues --   21.98589  22.66372  22.66382  22.76304  22.76313
 Alpha virt. eigenvalues --   23.18415
          Condensed to atoms (all electrons):
               1          2          3          4          5          6
     1  C    4.875500   0.530665  -0.054143  -0.037543  -0.054161   0.530655
     2  C    0.530665   4.875481   0.530695  -0.054161  -0.037532  -0.054139
     3  C   -0.054143   0.530695   4.875456   0.530653  -0.054139  -0.037537
     4  C   -0.037543  -0.054161   0.530653   4.875499   0.530668  -0.054143
     5  C   -0.054161  -0.037532  -0.054139   0.530668   4.875481   0.530692
     6  C    0.530655  -0.054139  -0.037537  -0.054143   0.530692   4.875456
     7  H    0.408501  -0.032429   0.003692  -0.000060   0.003693  -0.032435
     8  H   -0.032439   0.408499  -0.032424   0.003694  -0.000060   0.003694
     9  H    0.003694  -0.032427   0.408499  -0.032433   0.003692  -0.000060
    10  H   -0.000060   0.003693  -0.032435   0.408501  -0.032428   0.003692
    11  H    0.003694  -0.000060   0.003694  -0.032439   0.408499  -0.032424
    12  H   -0.032432   0.003692  -0.000060   0.003694  -0.032427   0.408499
               7          8          9         10         11         12
     1  C    0.408501  -0.032439   0.003694  -0.000060   0.003694  -0.032432
     2  C   -0.032429   0.408499  -0.032427   0.003693  -0.000060   0.003692
     3  C    0.003692  -0.032424   0.408499  -0.032435   0.003694  -0.000060
     4  C   -0.000060   0.003694  -0.032433   0.408501  -0.032439   0.003694
     5  C    0.003693  -0.000060   0.003692  -0.032428   0.408499  -0.032427
     6  C   -0.032435   0.003694  -0.000060   0.003692  -0.032424   0.408499
     7  H    0.515473  -0.003968  -0.000269   0.000084  -0.000269  -0.003968
     8  H   -0.003968   0.515475  -0.003969  -0.000269   0.000084  -0.000269
     9  H   -0.000269  -0.003969   0.515470  -0.003968  -0.000269   0.000084
    10  H    0.000084  -0.000269  -0.003968   0.515473  -0.003968  -0.000269
    11  H   -0.000269   0.000084  -0.000269  -0.003968   0.515475  -0.003969
    12  H   -0.003968  -0.000269   0.000084  -0.000269  -0.003969   0.515470
 Mulliken charges:
               1
     1  C   -0.141930
     2  C   -0.141979
     3  C   -0.141950
     4  C   -0.141930
     5  C   -0.141979
     6  C   -0.141950
     7  H    0.141953
     8  H    0.141952
     9  H    0.141954
    10  H    0.141953
    11  H    0.141952
    12  H    0.141954
 Sum of Mulliken charges =  -0.00000
 Mulliken charges with hydrogens summed into heavy atoms:
               1
     1  C    0.000023
     2  C   -0.000027
     3  C    0.000004
     4  C    0.000023
     5  C   -0.000027
     6  C    0.000004
 Electronic spatial extent (au):  <R**2>=            455.5813
 Charge=             -0.0000 electrons
 Dipole moment (field-independent basis, Debye):
    X=             -0.0000    Y=              0.0000    Z=             -0.0000  Tot=              0.0000
 Quadrupole moment (field-independent basis, Debye-Ang):
   XX=            -31.7408   YY=            -31.7410   ZZ=            -39.9901
   XY=             -0.0003   XZ=             -0.0001   YZ=              0.0001
 Traceless Quadrupole moment (field-independent basis, Debye-Ang):
   XX=              2.7498   YY=              2.7497   ZZ=             -5.4995
   XY=             -0.0003   XZ=             -0.0001   YZ=              0.0001
 Octapole moment (field-independent basis, Debye-Ang**2):
  XXX=             -0.0000  YYY=              0.0000  ZZZ=             -0.0000  XYY=             -0.0000
  XXY=             -0.0000  XXZ=             -0.0001  XZZ=              0.0000  YZZ=             -0.0000
  YYZ=             -0.0001  XYZ=              0.0000
 Hexadecapole moment (field-independent basis, Debye-Ang**3):
 XXXX=           -269.7334 YYYY=           -269.7239 ZZZZ=            -47.6101 XXXY=             -0.0026
 XXXZ=              0.0013 YYYX=             -0.0005 YYYZ=             -0.0010 ZZZX=              0.0022
 ZZZY=             -0.0016 XXYY=            -89.9109 XXZZ=            -63.5179 YYZZ=            -63.5162
 XXYZ=             -0.0003 YYXZ=              0.0005 ZZXY=             -0.0000
 N-N= 2.043298190930D+02 E-N=-9.468748443178D+02  KE= 2.310672500566D+02
 Unable to Open any file for archive entry.
 1\1\GINC-NODE12\FOpt\RM062X\def2TZVP\C6H6\SVSS\20-Jun-2022\0\\# opt fr
 eq M062X/def2tzvp\\converted from /home/svss/projects/Project-Philicit
 y/GS/hydrocarbon/set-1/GS/mol_13_hc/mol_13_hc_cregen_best.xyz\\0,1\C,-
 0.8754370869,-1.0776840598,-0.0000469408\C,0.4956271327,-1.2969743495,
 -0.0000318336\C,1.3710463184,-0.2193024265,-0.0000071619\C,0.875434668
 2,1.0776882674,0.0000004397\C,-0.4956270656,1.2969782966,-0.0000219664
 \C,-1.3710479767,0.2193044559,-0.0000526363\H,-1.5579473457,-1.9178313
 773,-0.000052452\H,0.8818901932,-2.3081519984,-0.0000305842\H,2.439904
 7051,-0.3902556158,0.0000099963\H,1.5579469288,1.917834165,0.000018282
 8\H,-0.8818944817,2.3081540828,-0.0000144308\H,-2.4399059898,0.3902605
 596,-0.0000607128\\Version=AS64L-G16RevC.01\State=1-A\HF=-232.2246181\
 RMSD=2.631e-09\RMSF=9.089e-06\Dipole=-0.0000002,0.,0.0000078\Quadrupol
 e=2.0444622,2.0442466,-4.0887087,0.0002251,0.0000762,0.0000409\PG=C01 
 [X(C6H6)]\\@
 The archive entry for this job was punched.


  THE LARGE PRINT GIVETH,
  AND THE SMALL PRINT TAKETH AWAY.

                     -- TOM WAITS
 Job cpu time:       0 days  0 hours  6 minutes 36.5 seconds.
 Elapsed time:       0 days  0 hours  0 minutes 55.3 seconds.
 File lengths (MBytes):  RWF=     37 Int=      0 D2E=      0 Chk=      5 Scr=      2
 Normal termination of Gaussian 16 at Mon Jun 20 17:21:43 2022.
 Link1:  Proceeding to internal job step number  2.
 --------------------------------------------------------------------
 #N Geom=AllCheck Guess=TCheck SCRF=Check GenChk RM062X/def2TZVP Freq
 --------------------------------------------------------------------
 1/10=4,29=7,30=1,38=1,40=1/1,3;
 2/12=2,40=1/2;
 3/5=44,7=101,11=2,14=-4,25=1,30=1,70=2,71=2,74=-55,116=1,140=1/1,2,3;
 4/5=101/1;
 5/5=2,38=6,98=1/2;
 8/6=4,10=90,11=11/1;
 11/6=1,8=1,9=11,15=111,16=1/1,2,10;
 10/6=1/2;
 6/7=2,8=2,9=2,10=2,28=1/1;
 7/8=1,10=1,25=1/1,2,3,16;
 1/10=4,30=1/3;
 99//99;
 Structure from the checkpoint file:  "/home/svss/projects/Project-Philicity/GS/hydrocarbon/set-1/GS/mol_13_hc/mol_13_hc.chk"
 ----------------------------------------------------------------------
 converted from /home/svss/projects/Project-Philicity/GS/hydrocarbon/se
 t-1/GS/mol_13_hc/mol_13_hc_cregen_best.xyz
 ----------------------------------------------------------------------
[...]
   D19        3.14159   0.00000   0.00000   0.00001   0.00001  -3.14159
   D20       -0.00001   0.00000   0.00000   0.00001   0.00001   0.00000
   D21        0.00001  -0.00000   0.00000  -0.00001  -0.00001   0.00000
   D22        3.14158   0.00000   0.00000   0.00001   0.00001   3.14159
   D23       -3.14158  -0.00000   0.00000  -0.00001  -0.00001  -3.14159
   D24       -0.00001   0.00000   0.00000   0.00001   0.00001   0.00000
         Item               Value     Threshold  Converged?
 Maximum Force            0.000027     0.000450     YES
 RMS     Force            0.000008     0.000300     YES
 Maximum Displacement     0.000136     0.001800     YES
 RMS     Displacement     0.000043     0.001200     YES
 Predicted change in Energy=-5.306174D-09
 Optimization completed.
    -- Stationary point found.
                           ----------------------------
                           !   Optimized Parameters   !
                           ! (Angstroms and Degrees)  !
 --------------------------                            --------------------------
 ! Name  Definition              Value          Derivative Info.                !
 --------------------------------------------------------------------------------
 ! R1    R(1,2)                  1.3885         -DE/DX =    0.0                 !
 ! R2    R(1,6)                  1.3885         -DE/DX =    0.0                 !
 ! R3    R(1,7)                  1.0824         -DE/DX =    0.0                 !
 ! R4    R(2,3)                  1.3884         -DE/DX =    0.0                 !
 ! R5    R(2,8)                  1.0824         -DE/DX =    0.0                 !
 ! R6    R(3,4)                  1.3885         -DE/DX =    0.0                 !
 ! R7    R(3,9)                  1.0824         -DE/DX =    0.0                 !
 ! R8    R(4,5)                  1.3885         -DE/DX =    0.0                 !
 ! R9    R(4,10)                 1.0824         -DE/DX =    0.0                 !
 ! R10   R(5,6)                  1.3884         -DE/DX =    0.0                 !
 ! R11   R(5,11)                 1.0824         -DE/DX =    0.0                 !
 ! R12   R(6,12)                 1.0824         -DE/DX =    0.0                 !
 ! A1    A(2,1,6)              120.0001         -DE/DX =    0.0                 !
 ! A2    A(2,1,7)              120.0023         -DE/DX =    0.0                 !
 ! A3    A(6,1,7)              119.9976         -DE/DX =    0.0                 !
 ! A4    A(1,2,3)              120.0008         -DE/DX =    0.0                 !
 ! A5    A(1,2,8)              119.9935         -DE/DX =    0.0                 !
 ! A6    A(3,2,8)              120.0057         -DE/DX =    0.0                 !
 ! A7    A(2,3,4)              119.9991         -DE/DX =    0.0                 !
 ! A8    A(2,3,9)              120.0009         -DE/DX =    0.0                 !
 ! A9    A(4,3,9)              120.0            -DE/DX =    0.0                 !
 ! A10   A(3,4,5)              120.0001         -DE/DX =    0.0                 !
 ! A11   A(3,4,10)             119.9974         -DE/DX =    0.0                 !
 ! A12   A(5,4,10)             120.0025         -DE/DX =    0.0                 !
 ! A13   A(4,5,6)              120.0008         -DE/DX =    0.0                 !
 ! A14   A(4,5,11)             119.9938         -DE/DX =    0.0                 !
 ! A15   A(6,5,11)             120.0054         -DE/DX =    0.0                 !
 ! A16   A(1,6,5)              119.9991         -DE/DX =    0.0                 !
 ! A17   A(1,6,12)             120.0002         -DE/DX =    0.0                 !
 ! A18   A(5,6,12)             120.0007         -DE/DX =    0.0                 !
 ! D1    D(6,1,2,3)              0.0007         -DE/DX =    0.0                 !
 ! D2    D(6,1,2,8)           -179.9998         -DE/DX =    0.0                 !
 ! D3    D(7,1,2,3)            180.0008         -DE/DX =    0.0                 !
 ! D4    D(7,1,2,8)              0.0003         -DE/DX =    0.0                 !
 ! D5    D(2,1,6,5)             -0.001          -DE/DX =    0.0                 !
 ! D6    D(2,1,6,12)           180.0002         -DE/DX =    0.0                 !
 ! D7    D(7,1,6,5)           -180.0011         -DE/DX =    0.0                 !
 ! D8    D(7,1,6,12)             0.0001         -DE/DX =    0.0                 !
 ! D9    D(1,2,3,4)             -0.0001         -DE/DX =    0.0                 !
 ! D10   D(1,2,3,9)            179.9997         -DE/DX =    0.0                 !
 ! D11   D(8,2,3,4)           -179.9996         -DE/DX =    0.0                 !
 ! D12   D(8,2,3,9)              0.0002         -DE/DX =    0.0                 !
 ! D13   D(2,3,4,5)             -0.0003         -DE/DX =    0.0                 !
 ! D14   D(2,3,4,10)           180.0001         -DE/DX =    0.0                 !
 ! D15   D(9,3,4,5)            180.0            -DE/DX =    0.0                 !
 ! D16   D(9,3,4,10)             0.0003         -DE/DX =    0.0                 !
 ! D17   D(3,4,5,6)              0.0            -DE/DX =    0.0                 !
 ! D18   D(3,4,5,11)           179.9999         -DE/DX =    0.0                 !
 ! D19   D(10,4,5,6)          -180.0004         -DE/DX =    0.0                 !
 ! D20   D(10,4,5,11)           -0.0004         -DE/DX =    0.0                 !
 ! D21   D(4,5,6,1)              0.0007         -DE/DX =    0.0                 !
 ! D22   D(4,5,6,12)           179.9994         -DE/DX =    0.0                 !
 ! D23   D(11,5,6,1)          -179.9993         -DE/DX =    0.0                 !
 ! D24   D(11,5,6,12)           -0.0005         -DE/DX =    0.0                 !
 --------------------------------------------------------------------------------
 GradGradGradGradGradGradGradGradGradGradGradGradGradGradGradGradGradGrad


 ----------------------------------------------------------------------

 Electric dipole moment (input orientation):
 (Debye = 10**-18 statcoulomb cm , SI units = C m)
                  (au)            (Debye)         (10**-30 SI)
   Tot        0.000000D+00      0.000000D+00      0.000000D+00
   x          0.000000D+00      0.000000D+00      0.000000D+00
   y          0.000000D+00      0.000000D+00      0.000000D+00
   z          0.000000D+00      0.000000D+00      0.000000D+00

 Dipole polarizability, Alpha (input orientation).
 (esu units = cm**3 , SI units = C**2 m**2 J**-1)
 Alpha(0;0):
               (au)            (10**-24 esu)      (10**-40 SI)
   iso        0.639006D+02      0.946909D+01      0.105358D+02
   aniso      0.380477D+02      0.563808D+01      0.627322D+01
   xx         0.765271D+02      0.113401D+02      0.126176D+02
   yx         0.382789D-03      0.567235D-04      0.631135D-04
   yy         0.766390D+02      0.113567D+02      0.126361D+02
   zx         0.633151D-03      0.938233D-04      0.104393D-03
   zy         0.345158D-03      0.511472D-04      0.569089D-04
   zz         0.385355D+02      0.571037D+01      0.635365D+01

 ----------------------------------------------------------------------

 Dipole orientation:
     6         -1.65259477         -2.03631588          0.08137589
     6          0.93601110         -2.45099789         -0.02740542
     6          2.58857027         -0.41470516         -0.10882178
     6          1.65258644          2.03632337         -0.08146353
     6         -0.93601533          2.45100482          0.02730380
     6         -2.58857824          0.41470841          0.10870900
     1         -2.94099197         -3.62379875          0.14487665
     1          1.66548609         -4.36190223         -0.04871056
     1          4.60660389         -0.73798077         -0.19361570
     1          2.94098842          3.62380368         -0.14494115
     1         -1.66549783          4.36190572          0.04862590
     1         -4.60661043          0.73798961          0.19352000

 Electric dipole moment (dipole orientation):
 (Debye = 10**-18 statcoulomb cm , SI units = C m)
                  (au)            (Debye)         (10**-30 SI)
   Tot        0.000000D+00      0.000000D+00      0.000000D+00
   x          0.000000D+00      0.000000D+00      0.000000D+00
   y          0.000000D+00      0.000000D+00      0.000000D+00
   z          0.000000D+00      0.000000D+00      0.000000D+00

 Dipole polarizability, Alpha (dipole orientation).
 (esu units = cm**3 , SI units = C**2 m**2 J**-1)
 Alpha(0;0):
               (au)            (10**-24 esu)      (10**-40 SI)
   iso        0.639006D+02      0.946909D+01      0.105358D+02
   aniso      0.380477D+02      0.563808D+01      0.627322D+01
   xx         0.764575D+02      0.113298D+02      0.126061D+02
   yx        -0.808922D-02     -0.119870D-02     -0.133373D-02
   yy         0.766380D+02      0.113566D+02      0.126359D+02
   zx        -0.162502D+01     -0.240803D+00     -0.267930D+00
   zy        -0.198000D+00     -0.293405D-01     -0.326458D-01
   zz         0.386062D+02      0.572085D+01      0.636530D+01

 ----------------------------------------------------------------------
 Unable to Open any file for archive entry.
 1\1\GINC-NODE12\Freq\RM062X\def2TZVP\C6H6\SVSS\20-Jun-2022\0\\#N Geom=
 AllCheck Guess=TCheck SCRF=Check GenChk RM062X/def2TZVP Freq\\converte
 d from /home/svss/projects/Project-Philicity/GS/hydrocarbon/set-1/GS/m
 ol_13_hc/mol_13_hc_cregen_best.xyz\\0,1\C,-0.8754370869,-1.0776840598,
 -0.0000469408\C,0.4956271327,-1.2969743495,-0.0000318336\C,1.371046318
 4,-0.2193024265,-0.0000071619\C,0.8754346682,1.0776882674,0.0000004397
 \C,-0.4956270656,1.2969782966,-0.0000219664\C,-1.3710479767,0.21930445
 59,-0.0000526363\H,-1.5579473457,-1.9178313773,-0.000052452\H,0.881890
 1932,-2.3081519984,-0.0000305842\H,2.4399047051,-0.3902556158,0.000009
 9963\H,1.5579469288,1.917834165,0.0000182828\H,-0.8818944817,2.3081540
 828,-0.0000144308\H,-2.4399059898,0.3902605596,-0.0000607128\\Version=
 AS64L-G16RevC.01\State=1-A\HF=-232.2246181\RMSD=1.211e-09\RMSF=9.097e-
 06\ZeroPoint=0.1011905\Thermal=0.1055633\ETot=-232.1190548\HTot=-232.1
 181106\GTot=-232.1508714\Dipole=-0.0000003,0.,0.0000078\DipoleDeriv=-0
 .0070831,0.0739048,0.0000005,0.0743012,0.0227244,-0.0000008,0.0000053,
 0.0000015,-0.1367097,-0.0484697,-0.0507971,0.0000019,-0.0502922,0.0643
 284,0.0000008,0.0000012,-0.0000035,-0.1366947,0.0826388,-0.0237108,0.0
 00003,-0.0240622,-0.0627823,0.0000007,0.0000051,0.0000028,-0.136903,-0
 .0070836,0.0739047,0.0000036,0.074301,0.0227251,0.0000032,-0.0000007,0
 .,-0.1367096,-0.0484701,-0.050797,0.000001,-0.0502916,0.0643285,0.0000
 025,0.0000066,0.0000015,-0.1366947,0.0826391,-0.0237102,0.0000033,-0.0
 240618,-0.0627826,0.0000009,-0.0000089,0.0000019,-0.1369031,0.0072408,
 -0.0718233,-0.0000019,-0.0719797,-0.0230676,-0.0000014,-0.0000028,-0.0
 000013,0.136797,0.0467909,0.0491272,-0.0000009,0.0486411,-0.0628628,-0
 .0000006,-0.0000016,0.0000024,0.1367612,-0.0811171,0.0232986,-0.000003
 1,0.023391,0.0616594,-0.0000005,-0.0000037,-0.0000014,0.1367492,0.0072
 405,-0.0718236,-0.000003,-0.0719795,-0.0230673,-0.0000031,-0.0000014,-
 0.0000014,0.136797,0.0467905,0.0491281,-0.0000011,0.0486409,-0.0628624
 ,-0.0000016,-0.000003,-0.0000012,0.1367612,-0.081117,0.0232986,-0.0000
 032,0.0233917,0.0616592,-0.0000002,0.0000041,-0.0000012,0.1367492\Pola
 r=76.5271144,0.0003828,76.6390411,0.0006332,0.0003452,38.5355182\Quadr
 upole=2.0444589,2.0442495,-4.0887084,0.0002257,0.0000762,0.0000409\PG=
 C01 [X(C6H6)]\NImag=0\\0.70652102,0.03980306,0.72317053,0.00000665,0.0
 0000090,0.13857925,-0.33692173,-0.00606610,-0.00000312,0.68439332,0.07
 129891,-0.13831904,0.00000081,-0.02726581,0.74557767,-0.00000277,-0.00
 000063,-0.06492512,0.00000781,0.00000355,0.13863129,-0.04325229,-0.015
 95015,-0.00000089,-0.21605955,-0.14104514,-0.00000368,0.75324474,-0.07
 541968,0.05872988,-0.00000099,-0.06364674,-0.25922955,-0.00000255,-0.0
 1303210,0.67620227,-0.00000134,0.00000023,0.00849859,-0.00000323,-0.00
 000401,-0.06491230,0.00000996,0.00000542,0.13873545,-0.05119138,0.0403
 9984,-0.00000046,0.07273927,0.00839755,0.00000109,-0.15991069,0.031289
 31,-0.00000109,0.70652679,0.04039982,-0.03420128,0.00000041,-0.0510942
 6,-0.05740296,-0.00000141,0.10869042,-0.31546687,-0.00000136,0.0398039
 6,0.72316465,-0.00000032,0.00000033,-0.00880252,0.00000055,-0.00000048
 ,0.00849810,-0.00000022,-0.00000259,-0.06489086,0.00000991,0.00000675,
 0.13857918,0.07273927,-0.05109427,0.00000046,-0.07340890,-0.02754944,-
 0.00000116,-0.00640091,0.09678459,0.00000074,-0.33692766,-0.00606503,-
 0.00000509,0.68439759,0.00839750,-0.05740292,-0.00000050,-0.02754939,-
 0.01198675,-0.00000041,0.03729274,0.02171233,0.00000076,0.07129990,-0.
 13831903,0.00000052,-0.02727120,0.74557335,0.00000115,-0.00000122,0.00
 849813,-0.00000145,-0.00000054,-0.00879035,0.00000021,0.00000184,0.008
 48807,-0.00000442,-0.00000097,-0.06492466,0.00000959,0.00000727,0.1386
 3123,-0.15991133,0.10869236,-0.00000093,-0.00640094,0.03729273,-0.0000
 0024,-0.00353074,-0.01284403,-0.00000010,-0.04325227,-0.01595017,-0.00
 000116,-0.21605706,-0.14104188,-0.00000443,0.75324247,0.03129131,-0.31
 547189,0.00000060,0.09678457,0.02171237,0.00000170,-0.01284406,-0.0818
 7997,-0.00000094,-0.07541970,0.05872986,-0.00000076,-0.06364339,-0.259
 22565,-0.00000409,-0.01303806,0.67620370,-0.00000157,0.00000137,-0.064
 89057,0.00000068,0.00000043,0.00848809,-0.00000006,-0.00000078,-0.0087
 9030,-0.00000147,0.00000028,0.00849860,-0.00000344,-0.00000497,-0.0649
 1278,0.00000877,0.00000388,0.13873558,-0.17259040,-0.13903352,-0.00000
 126,-0.01399062,-0.02611054,-0.00000028,-0.00533900,0.00221959,-0.0000
 0011,-0.00059126,0.00112111,0.,0.00039844,0.00279776,-0.00000004,0.011
 06616,0.01017028,0.00000012,0.17971307,-0.13901451,-0.23091951,-0.0000
 0116,0.00492229,0.00773210,0.00000006,0.00159294,0.00144600,0.00000007
 ,0.00111763,-0.00011996,0.00000002,0.00342476,-0.00429460,0.00000007,-
 0.02087983,-0.01732808,-0.00000032,0.14981583,0.24255570,-0.00000115,-
 0.00000109,-0.03782852,-0.00000026,-0.00000029,0.00321900,-0.00000017,
 -0.00000005,0.00754042,-0.00000003,0.,-0.00065368,-0.00000013,-0.00000
 003,0.00753848,0.00000012,0.00000006,0.00321677,0.00000149,0.00000134,
 0.02610988,-0.00557296,0.03048912,-0.00000003,-0.09605134,0.09468824,-
 0.00000037,0.01147155,-0.01961379,0.00000003,-0.00189930,-0.00358995,-
 0.00000019,-0.00120901,-0.00076372,-0.00000001,-0.00582909,0.00016590,
 -0.00000016,0.00103707,-0.00049847,0.00000007,0.09721231,-0.00055638,-
 0.00063187,-0.00000002,0.09467339,-0.30757559,0.00000015,0.01144336,-0
 .01775121,0.00000009,-0.00420862,-0.00200608,-0.00000013,-0.00077034,0
 .00049372,0.,0.00078929,0.00192427,-0.00000002,0.00037633,0.00066099,0
 .00000003,-0.10204745,0.32516097,-0.00000032,0.00000048,0.00322455,-0.
 00000022,0.00000041,-0.03784407,0.00000013,-0.00000067,0.00321571,-0.0
 0000029,-0.00000007,0.00754202,0.00000011,0.00000007,-0.00065294,-0.00
 000016,-0.00000018,0.00754123,0.00000005,-0.00000003,-0.00403879,0.000
 00058,-0.00000010,0.02612093,-0.00043841,-0.00392961,-0.00000016,-0.01
 488812,0.00593867,-0.00000026,-0.33619219,0.04428302,-0.00000488,-0.00
 689128,-0.00084187,-0.00000019,0.00139916,0.00232078,-0.00000009,0.000
 73201,-0.00035632,0.00000002,-0.00082856,0.00033912,-0.00000001,0.0008
 0630,-0.00024055,0.00000009,0.35611775,-0.00329937,-0.00347274,-0.0000
 0014,-0.02511269,0.00860945,-0.00000038,0.04430057,-0.06690054,0.00000
 041,0.03019033,0.00064490,0.00000049,0.00170034,-0.00531683,-0.0000001
 3,-0.00035802,-0.00145855,-0.00000001,-0.00127546,0.00022475,0.,0.0006
 2368,0.00088962,0.00000005,-0.04773786,0.06579994,-0.00000015,-0.00000
 015,0.00753792,-0.00000053,0.00000018,0.00321605,-0.00000498,0.0000004
 7,-0.03799165,0.00000022,-0.00000006,0.00321999,-0.00000009,-0.0000001
 2,0.00753377,0.00000003,-0.00000004,-0.00065116,-0.00000004,0.00000002
 ,0.00013051,0.00000008,0.00000002,-0.00404225,0.00000538,-0.00000037,0
 .02627618,-0.00059127,0.00112110,0.00000001,0.00039843,0.00279777,-0.0
 0000008,0.01106613,0.01017027,0.00000026,-0.17259089,-0.13903346,-0.00
 000339,-0.01399064,-0.02611054,-0.00000057,-0.00533897,0.00221959,-0.0
 0000017,0.00005729,-0.00010502,0.00000002,0.00036827,0.00058811,0.,0.0
 0069953,-0.00056447,0.00000006,0.17971359,0.00111763,-0.00011996,0.000
 00003,0.00342476,-0.00429462,-0.00000006,-0.02087983,-0.01732808,-0.00
 000055,-0.13901443,-0.23091869,-0.00000391,0.00492228,0.00773213,0.000
 00016,0.00159295,0.00144601,-0.00000003,-0.00010502,0.00001351,0.00000
 001,-0.00102466,-0.00096700,-0.00000002,0.00030992,0.00099610,0.000000
 05,0.14981577,0.24255487,0.00000007,0.,-0.00065368,-0.00000003,-0.0000
 0011,0.00753840,-0.00000016,-0.00000013,0.00321672,-0.00000317,-0.0000
 0377,-0.03782857,-0.00000047,-0.00000048,0.00321905,-0.00000022,0.0000
 0012,0.00754050,0.00000001,0.,-0.00132525,-0.00000002,-0.00000002,0.00
 012908,0.00000009,0.00000006,-0.00403783,0.00000381,0.00000429,0.02610
 993,-0.00189930,-0.00358996,-0.00000020,-0.00120901,-0.00076371,-0.000
 00002,-0.00582906,0.00016589,-0.00000024,-0.00557291,0.03048906,0.0000
 0022,-0.09605213,0.09468935,0.00000018,0.01147152,-0.01961381,-0.00000
 010,0.00036827,-0.00102466,0.00000001,0.00011503,0.00007201,0.00000003
 ,-0.00044885,0.00149908,0.,0.00103708,-0.00049847,0.00000009,0.0972130
 7,-0.00420863,-0.00200612,-0.00000020,-0.00077035,0.00049372,0.,0.0007
 8927,0.00192429,-0.00000009,-0.00055639,-0.00063178,-0.00000005,0.0946
 7437,-0.30757518,-0.00000214,0.01144340,-0.01775132,-0.00000005,0.0005
 8811,-0.00096700,0.,0.00007201,-0.00004407,0.00000002,-0.00011916,-0.0
 0015375,0.,0.00037634,0.00066098,0.00000008,-0.10204843,0.32516060,-0.
 00000022,-0.00000015,0.00754193,-0.00000006,0.,-0.00065293,-0.00000022
 ,-0.00000004,0.00754131,-0.00000020,0.00000053,0.00322456,0.00000027,-
 0.00000215,-0.03784401,0.00000035,-0.00000064,0.00321571,0.00000003,-0
 .00000004,0.00012907,0.00000003,0.,-0.00132539,-0.00000001,0.00000002,
 0.00012994,0.00000007,0.00000003,-0.00403885,-0.00000007,0.00000236,0.
 02612086,-0.00689124,-0.00084187,-0.00000008,0.00139917,0.00232077,-0.
 00000005,0.00073201,-0.00035632,0.00000002,-0.00043843,-0.00392962,-0.
 00000013,-0.01488814,0.00593870,-0.00000011,-0.33619177,0.04428368,-0.
 00000263,0.00069953,0.00030992,0.00000004,-0.00044885,-0.00011916,0.,-
 0.00006734,0.00003387,0.00000001,-0.00082856,0.00033912,-0.00000002,0.
 00080630,-0.00024055,0.00000004,0.35611732,0.03019032,0.00064492,0.000
 00028,0.00170032,-0.00531681,-0.00000003,-0.00035801,-0.00145855,0.,-0
 .00329938,-0.00347276,-0.00000018,-0.02511267,0.00860942,-0.00000023,0
 .04430127,-0.06690075,0.00000022,-0.00056447,0.00099611,0.00000003,0.0
 0149908,-0.00015375,0.00000002,0.00003388,0.00013764,0.00000001,-0.001
 27546,0.00022475,-0.00000004,0.00062367,0.00088962,0.00000006,-0.04773
 854,0.06580016,-0.00000003,-0.00000007,0.00322003,-0.00000014,0.000000
 05,0.00753384,0.00000009,0.00000007,-0.00065116,-0.00000011,-0.0000003
 3,0.00753784,-0.00000079,0.00000004,0.00321601,-0.00000203,0.00000028,
 -0.03799167,0.00000003,-0.00000001,-0.00403788,-0.00000002,0.,0.000129
 93,0.00000002,0.00000002,-0.00132146,-0.00000004,0.,0.00013051,0.00000
 008,0.00000007,-0.00404219,0.00000293,-0.00000013,0.02627620\\-0.00002
 859,0.00000465,0.00000070,-0.00000146,-0.00000763,-0.00000083,0.000016
 75,0.00000440,0.00000007,0.00002700,-0.00000364,0.00000054,0.00000372,
 0.00000867,0.00000052,-0.00001722,-0.00000638,-0.00000197,-0.00000521,
 -0.00000641,0.00000049,0.00000018,-0.00001074,0.00000007,0.00000243,-0
 .00001062,0.00000013,0.00000538,0.00000641,-0.00000031,-0.00000052,0.0
 0001047,0.00000020,-0.00000247,0.00001082,0.00000039\\\@
 The archive entry for this job was punched.


 SOME PEOPLE TRY TO PULL THE WOOL OVER YOUR EYES
 USING THE WRONG YARN.
 Job cpu time:       0 days  0 hours 24 minutes 53.8 seconds.
 Elapsed time:       0 days  0 hours  3 minutes  9.4 seconds.
 File lengths (MBytes):  RWF=    125 Int=      0 D2E=      0 Chk=      6 Scr=      2
 Normal termination of Gaussian 16 at Mon Jun 20 17:24:54 2022.
