 Entering Gaussian System, Link 0=/opt/apps/Gaussian/G16C/g16/g16
 Input=/home/svss/projects/Project-Philicity/GS/hydrocarbon/set-1/GS/mol_16_hc/mol_16_hc.com
 Output=/home/svss/projects/Project-Philicity/GS/hydrocarbon/set-1/GS/mol_16_hc/mol_16_hc.log
 Initial command:
 /opt/apps/Gaussian/G16C/g16/l1.exe "/home/svss/projects/Project-Philicity/GS/hydrocarbon/set-1/Gau-181324.inp" -scrdir="/home/svss/projects/Project-Philicity/GS/hydrocarbon/set-1/"
 Entering Link 1 = /opt/apps/Gaussian/G16C/g16/l1.exe PID=    181325.
  
 Copyright (c) 1988-2019, Gaussian, Inc.  All Rights Reserved.
  
 This is part of the Gaussian(R) 16 program.  It is based on
 the Gaussian(R) 09 system (copyright 2009, Gaussian, Inc.),
 the Gaussian(R) 03 system (copyright 2003, Gaussian, Inc.),
 the Gaussian(R) 98 system (copyright 1998, Gaussian, Inc.),
 the Gaussian(R) 94 system (copyright 1995, Gaussian, Inc.),
 the Gaussian 92(TM) system (copyright 1992, Gaussian, Inc.),
 the Gaussian 90(TM) system (copyright 1990, Gaussian, Inc.),
 the Gaussian 88(TM) system (copyright 1988, Gaussian, Inc.),
 the Gaussian 86(TM) system (copyright 1986, Carnegie Mellon
 University), and the Gaussian 82(TM) system (copyright 1983,
 Carnegie Mellon University). Gaussian is a federally registered
 trademark of Gaussian, Inc.
  
 This software contains proprietary and confidential information,
 including trade secrets, belonging to Gaussian, Inc.
  
 This software is provided under written license and may be
 used, copied, transmitted, or stored only in accord with that
 written license.
  
 The following legend is applicable only to US Government
 contracts under FAR:
  
                    RESTRICTED RIGHTS LEGEND
  
 Use, reproduction and disclosure by the US Government is
 subject to restrictions as set forth in subparagraphs (a)
 and (c) of the Commercial Computer Software - Restricted
 Rights clause in FAR 52.227-19.
  
 Gaussian, Inc.
 340 Quinnipiac St., Bldg. 40, Wallingford CT 06492
  
  
 ---------------------------------------------------------------
 Warning -- This program may not be used in any manner that
 competes with the business of Gaussian, Inc. or will provide
 assistance to any competitor of Gaussian, Inc.  The licensee
 of this program is prohibited from giving any competitor of
 Gaussian, Inc. access to this program.  By using this program,
 the user acknowledges that Gaussian, Inc. is engaged in the
 business of creating and licensing software in the field of
 computational chemistry and represents and warrants to the
 licensee that it is not a competitor of Gaussian, Inc. and that
 it will not use this program in any manner prohibited above.
 ---------------------------------------------------------------
  

 Cite this work as:
 Gaussian 16, Revision C.01,
 M. J. Frisch, G. W. Trucks, H. B. Schlegel, G. E. Scuseria, 
 M. A. Robb, J. R. Cheeseman, G. Scalmani, V. Barone, 
 G. A. Petersson, H. Nakatsuji, X. Li, M. Caricato, A. V. Marenich, 
 J. Bloino, B. G. Janesko, R. Gomperts, B. Mennucci, H. P. Hratchian, 
 J. V. Ortiz, A. F. Izmaylov, J. L. Sonnenberg, D. Williams-Young, 
 F. Ding, F. Lipparini, F. Egidi, J. Goings, B. Peng, A. Petrone, 
 T. Henderson, D. Ranasinghe, V. G. Zakrzewski, J. Gao, N. Rega, 
 G. Zheng, W. Liang, M. Hada, M. Ehara, K. Toyota, R. Fukuda, 
 J. Hasegawa, M. Ishida, T. Nakajima, Y. Honda, O. Kitao, H. Nakai, 
 T. Vreven, K. Throssell, J. A. Montgomery, Jr., J. E. Peralta, 
 F. Ogliaro, M. J. Bearpark, J. J. Heyd, E. N. Brothers, K. N. Kudin, 
 V. N. Staroverov, T. A. Keith, R. Kobayashi, J. Normand, 
 K. Raghavachari, A. P. Rendell, J. C. Burant, S. S. Iyengar, 
 J. Tomasi, M. Cossi, J. M. Millam, M. Klene, C. Adamo, R. Cammi, 
 J. W. Ochterski, R. L. Martin, K. Morokuma, O. Farkas, 
 J. B. Foresman, and D. J. Fox, Gaussian, Inc., Wallingford CT, 2019.
 
 ******************************************
 Gaussian 16:  AS64L-G16RevC.01  3-Jul-2019
                20-Jun-2022 
 ******************************************
 %nproc=8
 Will use up to    8 processors via shared memory.
 %mem=96GB
 %chk=/home/svss/projects/Project-Philicity/GS/hydrocarbon/set-1/GS/mol_16_hc/mol
 _16_hc.chk
 -------------------------
 # opt freq M062X/def2tzvp
 -------------------------
 1/18=20,19=15,26=3,38=1/1,3;
 2/9=110,12=2,17=6,18=5,40=1/2;
 3/5=44,7=101,11=2,25=1,30=1,71=1,74=-55/1,2,3;
 4//1;
 5/5=2,38=5/2;
 6/7=2,8=2,9=2,10=2,28=1/1;
 7//1,2,3,16;
 1/18=20,19=15,26=3/3(2);
 2/9=110/2;
 99//99;
 2/9=110/2;
 3/5=44,7=101,11=2,25=1,30=1,71=1,74=-55/1,2,3;
 4/5=5,16=3,69=1/1;
 5/5=2,38=5/2;
 7//1,2,3,16;
 1/18=20,19=15,26=3/3(-5);
 2/9=110/2;
 6/7=2,8=2,9=2,10=2,19=2,28=1/1;
 99/9=1/99;
 ----------------------------------------------------------------------
 converted from /home/svss/projects/Project-Philicity/GS/hydrocarbon/se
 t-1/GS/mol_16_hc/mol_16_hc_cregen_best.xyz
 ----------------------------------------------------------------------
 Symbolic Z-matrix:
 Charge =  0 Multiplicity = 1
 C                     1.10641   1.26706   0.1611 
 C                     0.46261   0.       -0.40982 
 C                     1.10656  -1.26698   0.16111 
 C                    -0.95143  -0.0001   -0.10748 
 N                    -2.06632  -0.00001   0.14481 
 H                     0.63513   2.15718  -0.25021 
 H                     2.1655    1.2867   -0.0862 
 H                     1.00105   1.2901    1.24386 
 H                     0.56508   0.00001  -1.50256 
 H                     1.00058  -1.29037   1.24381 
 H                     0.63589  -2.15715  -0.25072 
 H                     2.1658   -1.2861   -0.08557 
 

 GradGradGradGradGradGradGradGradGradGradGradGradGradGradGradGradGradGrad
 Berny optimization.
 Initialization pass.
                           ----------------------------
                           !    Initial Parameters    !
                           ! (Angstroms and Degrees)  !
 --------------------------                            --------------------------
 ! Name  Definition              Value          Derivative Info.                !
 --------------------------------------------------------------------------------
 ! R1    R(1,2)                  1.5316         estimate D2E/DX2                !
 ! R2    R(1,6)                  1.0879         estimate D2E/DX2                !
 ! R3    R(1,7)                  1.0878         estimate D2E/DX2                !
 ! R4    R(1,8)                  1.0881         estimate D2E/DX2                !
 ! R5    R(2,3)                  1.5316         estimate D2E/DX2                !
 ! R6    R(2,4)                  1.446          estimate D2E/DX2                !
 ! R7    R(2,9)                  1.0975         estimate D2E/DX2                !
 ! R8    R(3,10)                 1.0881         estimate D2E/DX2                !
 ! R9    R(3,11)                 1.0879         estimate D2E/DX2                !
 ! R10   R(3,12)                 1.0878         estimate D2E/DX2                !
 ! R11   R(4,5)                  1.1431         estimate D2E/DX2                !
 ! A1    A(2,1,6)              110.7222         estimate D2E/DX2                !
 ! A2    A(2,1,7)              109.8435         estimate D2E/DX2                !
 ! A3    A(2,1,8)              110.3489         estimate D2E/DX2                !
 ! A4    A(6,1,7)              108.7263         estimate D2E/DX2                !
 ! A5    A(6,1,8)              108.4777         estimate D2E/DX2                !
 ! A6    A(7,1,8)              108.6703         estimate D2E/DX2                !
 ! A7    A(1,2,3)              111.6325         estimate D2E/DX2                !
 ! A8    A(1,2,4)              109.4611         estimate D2E/DX2                !
 ! A9    A(1,2,9)              109.3826         estimate D2E/DX2                !
 ! A10   A(3,2,4)              109.4599         estimate D2E/DX2                !
 ! A11   A(3,2,9)              109.3834         estimate D2E/DX2                !
 ! A12   A(4,2,9)              107.426          estimate D2E/DX2                !
 ! A13   A(2,3,10)             110.3488         estimate D2E/DX2                !
 ! A14   A(2,3,11)             110.7232         estimate D2E/DX2                !
 ! A15   A(2,3,12)             109.8416         estimate D2E/DX2                !
 ! A16   A(10,3,11)            108.4779         estimate D2E/DX2                !
 ! A17   A(10,3,12)            108.6699         estimate D2E/DX2                !
 ! A18   A(11,3,12)            108.7275         estimate D2E/DX2                !
 ! A19   L(2,4,5,6,-1)         179.9281         estimate D2E/DX2                !
 ! A20   L(2,4,5,6,-2)         180.8394         estimate D2E/DX2                !
 ! D1    D(6,1,2,3)           -179.7248         estimate D2E/DX2                !
 ! D2    D(6,1,2,4)            -58.3765         estimate D2E/DX2                !
 ! D3    D(6,1,2,9)             59.0764         estimate D2E/DX2                !
 ! D4    D(7,1,2,3)             60.1794         estimate D2E/DX2                !
 ! D5    D(7,1,2,4)           -178.4723         estimate D2E/DX2                !
 ! D6    D(7,1,2,9)            -61.0194         estimate D2E/DX2                !
 ! D7    D(8,1,2,3)            -59.6109         estimate D2E/DX2                !
 ! D8    D(8,1,2,4)             61.7374         estimate D2E/DX2                !
 ! D9    D(8,1,2,9)            179.1903         estimate D2E/DX2                !
 ! D10   D(1,2,3,10)            59.651          estimate D2E/DX2                !
 ! D11   D(1,2,3,11)           179.7659         estimate D2E/DX2                !
 ! D12   D(1,2,3,12)           -60.1374         estimate D2E/DX2                !
 ! D13   D(4,2,3,10)           -61.698          estimate D2E/DX2                !
 ! D14   D(4,2,3,11)            58.4168         estimate D2E/DX2                !
 ! D15   D(4,2,3,12)           178.5135         estimate D2E/DX2                !
 ! D16   D(9,2,3,10)          -179.1506         estimate D2E/DX2                !
 ! D17   D(9,2,3,11)           -59.0358         estimate D2E/DX2                !
 ! D18   D(9,2,3,12)            61.0609         estimate D2E/DX2                !
 --------------------------------------------------------------------------------
 Trust Radius=3.00D-01 FncErr=1.00D-07 GrdErr=1.00D-06 EigMax=2.50D+02 EigMin=1.00D-04
 Number of steps in this run=     59 maximum allowed number of steps=    100.
 GradGradGradGradGradGradGradGradGradGradGradGradGradGradGradGradGradGrad

                          Input orientation:                          
 ---------------------------------------------------------------------
 Center     Atomic      Atomic             Coordinates (Angstroms)
 Number     Number       Type             X           Y           Z
 ---------------------------------------------------------------------
      1          6           0        1.106410    1.267060    0.161100
      2          6           0        0.462610    0.000000   -0.409820
      3          6           0        1.106560   -1.266980    0.161110
      4          6           0       -0.951430   -0.000100   -0.107480
      5          7           0       -2.066320   -0.000010    0.144810
      6          1           0        0.635130    2.157180   -0.250210
      7          1           0        2.165500    1.286700   -0.086200
      8          1           0        1.001050    1.290100    1.243860
      9          1           0        0.565080    0.000010   -1.502560
     10          1           0        1.000580   -1.290370    1.243810
     11          1           0        0.635890   -2.157150   -0.250720
     12          1           0        2.165800   -1.286100   -0.085570
 ---------------------------------------------------------------------
                    Distance matrix (angstroms):
                    1          2          3          4          5
     1  C    0.000000
     2  C    1.531623   0.000000
     3  C    2.534040   1.531624   0.000000
     4  C    2.431571   1.446001   2.431553   0.000000
     5  N    3.416423   2.589035   3.416525   1.143079   0.000000
     6  H    1.087931   2.169946   3.480848   2.681679   3.479561
     7  H    1.087757   2.158741   2.775572   3.372174   4.429141
     8  H    1.088118   2.165394   2.778874   2.702390   3.504433
     9  H    2.160143   1.097534   2.160153   2.060595   3.104528
    10  H    2.779192   2.165400   1.088126   2.702059   3.504098
    11  H    3.480833   2.169939   1.087905   2.681971   3.480178
    12  H    2.775208   2.158714   1.087753   3.372150   4.429215
                    6          7          8          9         10
     6  H    0.000000
     7  H    1.768238   0.000000
     8  H    1.765778   1.767771   0.000000
     9  H    2.495330   2.494592   3.065489   0.000000
    10  H    3.775083   3.125261   2.580470   3.065500   0.000000
    11  H    4.314330   3.771853   3.775002   2.495087   1.765765
    12  H    3.771768   2.572800   3.124233   2.494844   1.767769
                   11         12
    11  H    0.000000
    12  H    1.768227   0.000000
 Stoichiometry    C4H7N
 Framework group  C1[X(C4H7N)]
 Deg. of freedom    30
 Full point group                 C1      NOp   1
 Largest Abelian subgroup         C1      NOp   1
 Largest concise Abelian subgroup C1      NOp   1
                         Standard orientation:                         
 ---------------------------------------------------------------------
 Center     Atomic      Atomic             Coordinates (Angstroms)
 Number     Number       Type             X           Y           Z
 ---------------------------------------------------------------------
      1          6           0       -1.001060    1.267065   -0.148941
      2          6           0       -0.352691   -0.000001    0.416770
      3          6           0       -1.001235   -1.266975   -0.148950
      4          6           0        1.058866   -0.000115    0.103040
      5          7           0        2.171686   -0.000036   -0.158230
      6          1           0       -0.526471    2.157180    0.258556
      7          1           0       -2.058122    1.286716    0.106889
      8          1           0       -0.904432    1.290104   -1.232515
      9          1           0       -0.446348    0.000010    1.510301
     10          1           0       -0.903987   -1.290366   -1.232469
     11          1           0       -0.527269   -2.157150    0.259072
     12          1           0       -2.058452   -1.286084    0.106262
 ---------------------------------------------------------------------
 Rotational constants (GHZ):           7.9959394           4.0816674           2.9761480
 Standard basis: def2TZVP (5D, 7F)
 There are   222 symmetry adapted cartesian basis functions of A   symmetry.
 There are   197 symmetry adapted basis functions of A   symmetry.
   197 basis functions,   311 primitive gaussians,   222 cartesian basis functions
    19 alpha electrons       19 beta electrons
       nuclear repulsion energy       160.4913985825 Hartrees.
 NAtoms=   12 NActive=   12 NUniq=   12 SFac= 1.00D+00 NAtFMM=   60 NAOKFM=F Big=F
 Integral buffers will be    131072 words long.
 Raffenetti 2 integral format.
 Two-electron integral symmetry is turned on.
 One-electron integrals computed using PRISM.
   1 Symmetry operations used in ECPInt.
 ECPInt:  NShTT=    3486 NPrTT=   10284 LenC2=    3466 LenP2D=    8706.
 LDataN:  DoStor=T MaxTD1= 6 Len=  172
 NBasis=   197 RedAO= T EigKep=  8.88D-05  NBF=   197
 NBsUse=   197 1.00D-06 EigRej= -1.00D+00 NBFU=   197
 ExpMin= 9.52D-02 ExpMax= 1.97D+04 ExpMxC= 6.73D+02 IAcc=3 IRadAn=         5 AccDes= 0.00D+00
 Harris functional with IExCor= 1009 and IRadAn=       5 diagonalized for initial guess.
 HarFok:  IExCor= 1009 AccDes= 0.00D+00 IRadAn=         5 IDoV= 1 UseB2=F ITyADJ=14
 ICtDFT=  3500011 ScaDFX=  1.000000  1.000000  1.000000  1.000000
 FoFCou: FMM=F IPFlag=           0 FMFlag=      100000 FMFlg1=           0
         NFxFlg=           0 DoJE=T BraDBF=F KetDBF=T FulRan=T
         wScrn=  0.000000 ICntrl=       500 IOpCl=  0 I1Cent=   200000004 NGrid=           0
         NMat0=    1 NMatS0=      1 NMatT0=    0 NMatD0=    1 NMtDS0=    0 NMtDT0=    0
 Petite list used in FoFCou.
 Keep R1 ints in memory in canonical form, NReq=198610726.
 Requested convergence on RMS density matrix=1.00D-08 within 128 cycles.
 Requested convergence on MAX density matrix=1.00D-06.
 Requested convergence on             energy=1.00D-06.
 No special actions if energy rises.
 Integral accuracy reduced to 1.0D-05 until final iterations.
 Initial convergence to 1.0D-05 achieved.  Increase integral accuracy.
 SCF Done:  E(RM062X) =  -211.361166726     A.U. after   14 cycles
            NFock= 14  Conv=0.17D-08     -V/T= 2.0047

 **********************************************************************

            Population analysis using the SCF Density.

 **********************************************************************

 Orbital symmetries:
       Occupied  (A) (A) (A) (A) (A) (A) (A) (A) (A) (A) (A) (A)
                 (A) (A) (A) (A) (A) (A) (A)
       Virtual   (A) (A) (A) (A) (A) (A) (A) (A) (A) (A) (A) (A)
                 (A) (A) (A) (A) (A) (A) (A) (A) (A) (A) (A) (A)
                 (A) (A) (A) (A) (A) (A) (A) (A) (A) (A) (A) (A)
                 (A) (A) (A) (A) (A) (A) (A) (A) (A) (A) (A) (A)
                 (A) (A) (A) (A) (A) (A) (A) (A) (A) (A) (A) (A)
                 (A) (A) (A) (A) (A) (A) (A) (A) (A) (A) (A) (A)
                 (A) (A) (A) (A) (A) (A) (A) (A) (A) (A) (A) (A)
                 (A) (A) (A) (A) (A) (A) (A) (A) (A) (A) (A) (A)
                 (A) (A) (A) (A) (A) (A) (A) (A) (A) (A) (A) (A)
                 (A) (A) (A) (A) (A) (A) (A) (A) (A) (A) (A) (A)
                 (A) (A) (A) (A) (A) (A) (A) (A) (A) (A) (A) (A)
                 (A) (A) (A) (A) (A) (A) (A) (A) (A) (A) (A) (A)
                 (A) (A) (A) (A) (A) (A) (A) (A) (A) (A) (A) (A)
                 (A) (A) (A) (A) (A) (A) (A) (A) (A) (A) (A) (A)
                 (A) (A) (A) (A) (A) (A) (A) (A) (A) (A)
 The electronic state is 1-A.
 Alpha  occ. eigenvalues --  -14.74404 -10.59252 -10.56725 -10.55099 -10.55098
 Alpha  occ. eigenvalues --   -1.01882  -0.93202  -0.80576  -0.73901  -0.60171
 Alpha  occ. eigenvalues --   -0.54839  -0.51361  -0.47772  -0.47316  -0.44936
 Alpha  occ. eigenvalues --   -0.44009  -0.42968  -0.39031  -0.39024
 Alpha virt. eigenvalues --    0.04440   0.07399   0.08177   0.09475   0.11564
 Alpha virt. eigenvalues --    0.12060   0.13045   0.14677   0.15529   0.17603
 Alpha virt. eigenvalues --    0.18396   0.20632   0.20747   0.22388   0.25851
 Alpha virt. eigenvalues --    0.29102   0.29890   0.30821   0.32819   0.34406
 Alpha virt. eigenvalues --    0.36800   0.40208   0.40256   0.41373   0.43486
 Alpha virt. eigenvalues --    0.43544   0.44570   0.46041   0.47095   0.49525
 Alpha virt. eigenvalues --    0.49997   0.51481   0.54000   0.57673   0.58353
 Alpha virt. eigenvalues --    0.61007   0.62305   0.68693   0.69374   0.72095
 Alpha virt. eigenvalues --    0.73048   0.77538   0.83244   0.84429   0.88718
 Alpha virt. eigenvalues --    0.89325   0.94008   0.99269   0.99414   1.03002
 Alpha virt. eigenvalues --    1.06462   1.08993   1.13898   1.14329   1.15954
 Alpha virt. eigenvalues --    1.16186   1.23633   1.29968   1.32264   1.33697
 Alpha virt. eigenvalues --    1.34828   1.39120   1.41021   1.48198   1.50288
 Alpha virt. eigenvalues --    1.50939   1.55339   1.56121   1.57178   1.59732
 Alpha virt. eigenvalues --    1.59982   1.64408   1.64491   1.66888   1.70809
 Alpha virt. eigenvalues --    1.75570   1.77806   1.78467   1.91600   1.91975
 Alpha virt. eigenvalues --    1.96822   1.98559   2.00088   2.08436   2.10084
 Alpha virt. eigenvalues --    2.10100   2.12884   2.14757   2.27250   2.29141
 Alpha virt. eigenvalues --    2.31005   2.32874   2.33968   2.36287   2.36752
 Alpha virt. eigenvalues --    2.37333   2.40714   2.42999   2.45595   2.51400
 Alpha virt. eigenvalues --    2.54526   2.57567   2.58414   2.60330   2.62031
 Alpha virt. eigenvalues --    2.63266   2.66050   2.70129   2.70264   2.75898
 Alpha virt. eigenvalues --    2.77549   2.80448   2.85282   2.85952   2.97427
 Alpha virt. eigenvalues --    2.98269   2.98655   2.99359   2.99693   3.07503
 Alpha virt. eigenvalues --    3.07716   3.13434   3.17105   3.18933   3.19677
 Alpha virt. eigenvalues --    3.19731   3.23356   3.25334   3.30568   3.33375
 Alpha virt. eigenvalues --    3.33547   3.34389   3.34679   3.45205   3.45966
 Alpha virt. eigenvalues --    3.51599   3.53701   3.55762   3.56199   3.58788
 Alpha virt. eigenvalues --    3.69913   3.71340   3.81463   3.91384   3.93114
 Alpha virt. eigenvalues --    3.96433   3.99277   3.99988   4.03918   4.05008
 Alpha virt. eigenvalues --    4.06717   4.11855   4.32769   4.33221   4.34632
 Alpha virt. eigenvalues --    4.38094   4.40177   4.46677   4.57844   4.58077
 Alpha virt. eigenvalues --    4.59088   4.59298   4.70041   4.72883   4.75554
 Alpha virt. eigenvalues --    4.78968   5.03153   5.19936   5.20380   5.61448
 Alpha virt. eigenvalues --    5.70211   5.73243   6.11132  22.43642  22.45037
 Alpha virt. eigenvalues --   22.76564  23.48837  32.24535
          Condensed to atoms (all electrons):
               1          2          3          4          5          6
     1  C    5.057482   0.280302  -0.057521  -0.041256  -0.000791   0.414014
     2  C    0.280302   5.173890   0.280280   0.097562  -0.030588  -0.039784
     3  C   -0.057521   0.280280   5.057496  -0.041272  -0.000787   0.009952
     4  C   -0.041256   0.097562  -0.041272   5.334135   0.955848  -0.004377
     5  N   -0.000791  -0.030588  -0.000787   0.955848   6.040280   0.000614
     6  H    0.414014  -0.039784   0.009952  -0.004377   0.000614   0.507206
     7  H    0.421780  -0.057310  -0.003785   0.015617  -0.000134  -0.020244
     8  H    0.394706   0.002722  -0.011642  -0.022199   0.000658  -0.021065
     9  H   -0.049987   0.468946  -0.049975  -0.071588  -0.001187  -0.004713
    10  H   -0.011648   0.002703   0.394728  -0.022187   0.000659  -0.000157
    11  H    0.009951  -0.039753   0.414002  -0.004388   0.000613  -0.000381
    12  H   -0.003771  -0.057327   0.421776   0.015617  -0.000134  -0.000033
               7          8          9         10         11         12
     1  C    0.421780   0.394706  -0.049987  -0.011648   0.009951  -0.003771
     2  C   -0.057310   0.002722   0.468946   0.002703  -0.039753  -0.057327
     3  C   -0.003785  -0.011642  -0.049975   0.394728   0.414002   0.421776
     4  C    0.015617  -0.022199  -0.071588  -0.022187  -0.004388   0.015617
     5  N   -0.000134   0.000658  -0.001187   0.000659   0.000613  -0.000134
     6  H   -0.020244  -0.021065  -0.004713  -0.000157  -0.000381  -0.000033
     7  H    0.521468  -0.024763  -0.004892  -0.000130  -0.000034   0.001858
     8  H   -0.024763   0.515251   0.007490   0.004521  -0.000157  -0.000133
     9  H   -0.004892   0.007490   0.551586   0.007489  -0.004719  -0.004888
    10  H   -0.000130   0.004521   0.007489   0.515228  -0.021063  -0.024765
    11  H   -0.000034  -0.000157  -0.004719  -0.021063   0.507211  -0.020242
    12  H    0.001858  -0.000133  -0.004888  -0.024765  -0.020242   0.521487
 Mulliken charges:
               1
     1  C   -0.413260
     2  C   -0.081644
     3  C   -0.413252
     4  C   -0.211512
     5  N    0.034948
     6  H    0.158967
     7  H    0.150568
     8  H    0.154609
     9  H    0.156439
    10  H    0.154621
    11  H    0.158960
    12  H    0.150555
 Sum of Mulliken charges =  -0.00000
 Mulliken charges with hydrogens summed into heavy atoms:
               1
     1  C    0.050883
     2  C    0.074795
     3  C    0.050885
     4  C   -0.211512
     5  N    0.034948
 Electronic spatial extent (au):  <R**2>=            451.8908
 Charge=             -0.0000 electrons
 Dipole moment (field-independent basis, Debye):
    X=             -4.0352    Y=              0.0001    Z=              0.7576  Tot=              4.1057
 Quadrupole moment (field-independent basis, Debye-Ang):
   XX=            -39.7321   YY=            -30.3327   ZZ=            -30.4759
   XY=              0.0001   XZ=              0.7276   YZ=              0.0000
 Traceless Quadrupole moment (field-independent basis, Debye-Ang):
   XX=             -6.2185   YY=              3.1809   ZZ=              3.0377
   XY=              0.0001   XZ=              0.7276   YZ=              0.0000
 Octapole moment (field-independent basis, Debye-Ang**2):
  XXX=            -26.8624  YYY=              0.0002  ZZZ=              0.5831  XYY=             -0.8245
  XXY=              0.0014  XXZ=              2.9599  XZZ=             -1.4647  YZZ=             -0.0006
  YYZ=              0.8301  XYZ=             -0.0001
 Hexadecapole moment (field-independent basis, Debye-Ang**3):
 XXXX=           -402.5216 YYYY=           -200.7740 ZZZZ=            -60.0399 XXXY=             -0.0014
 XXXZ=              2.4501 YYYX=              0.0023 YYYZ=             -0.0017 ZZZX=              0.6980
 ZZZY=              0.0001 XXYY=            -94.7100 XXZZ=            -71.9125 YYZZ=            -45.1763
 XXYZ=              0.0013 YYXZ=              0.2709 ZZXY=             -0.0006
 N-N= 1.604913985825D+02 E-N=-8.112834956468D+02  KE= 2.103749775639D+02
   1 Symmetry operations used in ECPInt.
 ECPInt:  NShTT=    3486 NPrTT=   10284 LenC2=    3466 LenP2D=    8706.
 LDataN:  DoStor=T MaxTD1= 7 Len=  274
 Calling FoFJK, ICntrl=      2127 FMM=F ISym2X=0 I1Cent= 0 IOpClX= 0 NMat=1 NMatS=1 NMatT=0.
 ***** Axes restored to original set *****
 -------------------------------------------------------------------
 Center     Atomic                   Forces (Hartrees/Bohr)
 Number     Number              X              Y              Z
 -------------------------------------------------------------------
      1        6          -0.000431069    0.000602748   -0.002508637
      2        6           0.012849070   -0.000006233   -0.001016573
      3        6          -0.000418646   -0.000585687   -0.002498951
      4        6          -0.005663364    0.000011914   -0.001823369
      5        7          -0.008344242   -0.000005665    0.002430070
      6        1           0.000113417    0.001052560    0.000205910
      7        1           0.001320235   -0.000254164   -0.000285373
      8        1          -0.000201915   -0.000230545    0.001189340
      9        1          -0.000451268   -0.000000086    0.003210735
     10        1          -0.000200279    0.000231562    0.001183773
     11        1           0.000104738   -0.001066242    0.000200071
     12        1           0.001323323    0.000249838   -0.000286996
 -------------------------------------------------------------------
 Cartesian Forces:  Max     0.012849070 RMS     0.002935982

 GradGradGradGradGradGradGradGradGradGradGradGradGradGradGradGradGradGrad
 Berny optimization.
 FormGI is forming the generalized inverse of G from B-inverse, IUseBI=4.
 Internal  Forces:  Max     0.013823991 RMS     0.002473508
 Search for a local minimum.
 Step number   1 out of a maximum of   59
 All quantities printed in internal units (Hartrees-Bohrs-Radians)
 Mixed Optimization -- RFO/linear search
 Second derivative matrix not updated -- first step.
 ITU=  0
     Eigenvalues ---    0.00348   0.00348   0.04378   0.05090   0.05090
     Eigenvalues ---    0.05113   0.05599   0.05600   0.05677   0.05677
     Eigenvalues ---    0.09161   0.16000   0.16000   0.16000   0.16000
     Eigenvalues ---    0.16000   0.16000   0.16633   0.23248   0.29274
     Eigenvalues ---    0.29274   0.33956   0.35030   0.35031   0.35053
     Eigenvalues ---    0.35056   0.35073   0.35074   0.38774   1.39539
 RFO step:  Lambda=-8.13685462D-04 EMin= 3.47627338D-03
 Linear search not attempted -- first point.
 Iteration  1 RMS(Cart)=  0.01432746 RMS(Int)=  0.00008165
 Iteration  2 RMS(Cart)=  0.00008642 RMS(Int)=  0.00004696
 Iteration  3 RMS(Cart)=  0.00000001 RMS(Int)=  0.00004696
 Variable       Old X    -DE/DX   Delta X   Delta X   Delta X     New X
                                 (Linear)    (Quad)   (Total)
    R1        2.89435   0.00078   0.00000   0.00267   0.00267   2.89702
    R2        2.05589   0.00074   0.00000   0.00209   0.00209   2.05799
    R3        2.05556   0.00135   0.00000   0.00383   0.00383   2.05939
    R4        2.05625   0.00120   0.00000   0.00341   0.00341   2.05966
    R5        2.89435   0.00079   0.00000   0.00268   0.00268   2.89702
    R6        2.73255   0.01382   0.00000   0.03558   0.03558   2.76812
    R7        2.07404  -0.00324   0.00000  -0.00952  -0.00952   2.06452
    R8        2.05626   0.00119   0.00000   0.00340   0.00340   2.05966
    R9        2.05584   0.00075   0.00000   0.00214   0.00214   2.05798
   R10        2.05555   0.00135   0.00000   0.00384   0.00384   2.05939
   R11        2.16011   0.00868   0.00000   0.00621   0.00621   2.16632
    A1        1.93247   0.00135   0.00000   0.00981   0.00981   1.94228
    A2        1.91713  -0.00048   0.00000  -0.00349  -0.00351   1.91362
    A3        1.92595  -0.00058   0.00000  -0.00454  -0.00455   1.92140
    A4        1.89763  -0.00023   0.00000   0.00039   0.00039   1.89802
    A5        1.89329  -0.00029   0.00000  -0.00084  -0.00084   1.89246
    A6        1.89666   0.00023   0.00000  -0.00141  -0.00143   1.89523
    A7        1.94835   0.00001   0.00000   0.00494   0.00480   1.95316
    A8        1.91046   0.00071   0.00000   0.01279   0.01262   1.92308
    A9        1.90909  -0.00037   0.00000  -0.00989  -0.00988   1.89920
   A10        1.91044   0.00072   0.00000   0.01286   0.01269   1.92313
   A11        1.90910  -0.00037   0.00000  -0.00991  -0.00990   1.89920
   A12        1.87494  -0.00072   0.00000  -0.01147  -0.01138   1.86356
   A13        1.92595  -0.00058   0.00000  -0.00454  -0.00455   1.92140
   A14        1.93249   0.00135   0.00000   0.00979   0.00980   1.94228
   A15        1.91710  -0.00048   0.00000  -0.00346  -0.00347   1.91362
   A16        1.89330  -0.00029   0.00000  -0.00084  -0.00083   1.89247
   A17        1.89665   0.00022   0.00000  -0.00140  -0.00143   1.89522
   A18        1.89765  -0.00023   0.00000   0.00037   0.00036   1.89802
   A19        3.14034  -0.00010   0.00000  -0.00189  -0.00189   3.13845
   A20        3.15624   0.00092   0.00000   0.01785   0.01785   3.17409
    D1       -3.13679  -0.00067   0.00000  -0.01531  -0.01534   3.13105
    D2       -1.01886   0.00073   0.00000   0.01282   0.01287  -1.00600
    D3        1.03108   0.00005   0.00000   0.00062   0.00061   1.03169
    D4        1.05033  -0.00093   0.00000  -0.01978  -0.01981   1.03052
    D5       -3.11493   0.00047   0.00000   0.00835   0.00840  -3.10652
    D6       -1.06499  -0.00021   0.00000  -0.00384  -0.00385  -1.06884
    D7       -1.04041  -0.00053   0.00000  -0.01297  -0.01301  -1.05342
    D8        1.07752   0.00086   0.00000   0.01516   0.01520   1.09272
    D9        3.12746   0.00018   0.00000   0.00296   0.00294   3.13040
   D10        1.04111   0.00053   0.00000   0.01264   0.01268   1.05379
   D11        3.13751   0.00067   0.00000   0.01498   0.01501  -3.13067
   D12       -1.04960   0.00092   0.00000   0.01943   0.01945  -1.03015
   D13       -1.07683  -0.00086   0.00000  -0.01545  -0.01549  -1.09232
   D14        1.01957  -0.00072   0.00000  -0.01312  -0.01316   1.00640
   D15        3.11565  -0.00047   0.00000  -0.00867  -0.00872   3.10693
   D16       -3.12677  -0.00019   0.00000  -0.00329  -0.00326  -3.13003
   D17       -1.03037  -0.00005   0.00000  -0.00095  -0.00094  -1.03131
   D18        1.06571   0.00021   0.00000   0.00350   0.00351   1.06922
         Item               Value     Threshold  Converged?
 Maximum Force            0.013824     0.000450     NO 
 RMS     Force            0.002474     0.000300     NO 
 Maximum Displacement     0.054136     0.001800     NO 
 RMS     Displacement     0.014296     0.001200     NO 
 Predicted change in Energy=-4.103833D-04
 GradGradGradGradGradGradGradGradGradGradGradGradGradGradGradGradGradGrad

                          Input orientation:                          
 ---------------------------------------------------------------------
 Center     Atomic      Atomic             Coordinates (Angstroms)
 Number     Number       Type             X           Y           Z
 ---------------------------------------------------------------------
      1          6           0        1.110317    1.270265    0.159481
      2          6           0        0.459647   -0.000065   -0.400063
      3          6           0        1.110661   -1.270244    0.159434
      4          6           0       -0.976957   -0.000226   -0.113901
      5          7           0       -2.094967    0.000455    0.139496
      6          1           0        0.647446    2.165859   -0.252427
      7          1           0        2.171341    1.278381   -0.089092
      8          1           0        1.007388    1.296964    1.244204
      9          1           0        0.564522   -0.000032   -1.487516
     10          1           0        1.007409   -1.297196    1.244120
     11          1           0        0.648285   -2.165942   -0.252797
     12          1           0        2.171767   -1.277879   -0.088808
 ---------------------------------------------------------------------
                    Distance matrix (angstroms):
                    1          2          3          4          5
     1  C    0.000000
     2  C    1.533036   0.000000
     3  C    2.540508   1.533040   0.000000
     4  C    2.458780   1.464828   2.458823   0.000000
     5  N    3.447705   2.610973   3.448351   1.146367   0.000000
     6  H    1.089039   2.179057   3.491561   2.711051   3.516164
     7  H    1.089783   2.158941   2.771696   3.398122   4.459455
     8  H    1.089923   2.164699   2.788897   2.732174   3.539198
     9  H    2.150383   1.092498   2.150384   2.064698   3.117700
    10  H    2.789066   2.164701   1.089923   2.732044   3.539609
    11  H    3.491556   2.179058   1.089037   2.711279   3.517471
    12  H    2.771527   2.158945   1.089784   3.398161   4.459965
                    6          7          8          9         10
     6  H    0.000000
     7  H    1.771031   0.000000
     8  H    1.767609   1.769975   0.000000
     9  H    2.494675   2.484311   3.056244   0.000000
    10  H    3.789720   3.125027   2.594160   3.056243   0.000000
    11  H    4.331800   3.769597   3.789681   2.494536   1.767612
    12  H    3.769570   2.556261   3.124503   2.484455   1.769972
                   11         12
    11  H    0.000000
    12  H    1.771029   0.000000
 Stoichiometry    C4H7N
 Framework group  C1[X(C4H7N)]
 Deg. of freedom    30
 Full point group                 C1      NOp   1
 Largest Abelian subgroup         C1      NOp   1
 Largest concise Abelian subgroup C1      NOp   1
                         Standard orientation:                         
 ---------------------------------------------------------------------
 Center     Atomic      Atomic             Coordinates (Angstroms)
 Number     Number       Type             X           Y           Z
 ---------------------------------------------------------------------
      1          6           0       -1.012070    1.270564   -0.145927
      2          6           0       -0.356200   -0.000013    0.406944
      3          6           0       -1.013258   -1.269945   -0.146012
      4          6           0        1.077439   -0.000635    0.106275
      5          7           0        2.192831   -0.000311   -0.158410
      6          1           0       -0.544761    2.165981    0.261328
      7          1           0       -2.070524    1.279018    0.113358
      8          1           0       -0.920101    1.297290   -1.231634
      9          1           0       -0.450077   -0.000007    1.495402
     10          1           0       -0.920984   -1.296870   -1.231687
     11          1           0       -0.547037   -2.165819    0.261478
     12          1           0       -2.071803   -1.277242    0.112943
 ---------------------------------------------------------------------
 Rotational constants (GHZ):           7.9816235           4.0042953           2.9276822
 Standard basis: def2TZVP (5D, 7F)
 There are   222 symmetry adapted cartesian basis functions of A   symmetry.
 There are   197 symmetry adapted basis functions of A   symmetry.
   197 basis functions,   311 primitive gaussians,   222 cartesian basis functions
    19 alpha electrons       19 beta electrons
       nuclear repulsion energy       159.7081689020 Hartrees.
 NAtoms=   12 NActive=   12 NUniq=   12 SFac= 1.00D+00 NAtFMM=   60 NAOKFM=F Big=F
 Integral buffers will be    131072 words long.
 Raffenetti 2 integral format.
 Two-electron integral symmetry is turned on.
 One-electron integrals computed using PRISM.
   1 Symmetry operations used in ECPInt.
 ECPInt:  NShTT=    3486 NPrTT=   10284 LenC2=    3465 LenP2D=    8698.
 LDataN:  DoStor=T MaxTD1= 6 Len=  172
 NBasis=   197 RedAO= T EigKep=  9.98D-05  NBF=   197
 NBsUse=   197 1.00D-06 EigRej= -1.00D+00 NBFU=   197
 Initial guess from the checkpoint file:  "/home/svss/projects/Project-Philicity/GS/hydrocarbon/set-1/GS/mol_16_hc/mol_16_hc.chk"
 B after Tr=    -0.000000    0.000000   -0.000000
         Rot=    1.000000   -0.000029   -0.000308    0.000138 Ang=  -0.04 deg.
 ExpMin= 9.52D-02 ExpMax= 1.97D+04 ExpMxC= 6.73D+02 IAcc=3 IRadAn=         5 AccDes= 0.00D+00
 Harris functional with IExCor= 1009 and IRadAn=       5 diagonalized for initial guess.
 HarFok:  IExCor= 1009 AccDes= 0.00D+00 IRadAn=         5 IDoV= 1 UseB2=F ITyADJ=14
 ICtDFT=  3500011 ScaDFX=  1.000000  1.000000  1.000000  1.000000
 FoFCou: FMM=F IPFlag=           0 FMFlag=      100000 FMFlg1=           0
         NFxFlg=           0 DoJE=T BraDBF=F KetDBF=T FulRan=T
         wScrn=  0.000000 ICntrl=       500 IOpCl=  0 I1Cent=   200000004 NGrid=           0
         NMat0=    1 NMatS0=      1 NMatT0=    0 NMatD0=    1 NMtDS0=    0 NMtDT0=    0
 Petite list used in FoFCou.
 Keep R1 ints in memory in canonical form, NReq=198610726.
 Requested convergence on RMS density matrix=1.00D-08 within 128 cycles.
 Requested convergence on MAX density matrix=1.00D-06.
 Requested convergence on             energy=1.00D-06.
 No special actions if energy rises.
 Integral accuracy reduced to 1.0D-05 until final iterations.
 Initial convergence to 1.0D-05 achieved.  Increase integral accuracy.
 SCF Done:  E(RM062X) =  -211.361566528     A.U. after   11 cycles
            NFock= 11  Conv=0.26D-08     -V/T= 2.0050
   1 Symmetry operations used in ECPInt.
 ECPInt:  NShTT=    3486 NPrTT=   10284 LenC2=    3465 LenP2D=    8698.
 LDataN:  DoStor=T MaxTD1= 7 Len=  274
 Calling FoFJK, ICntrl=      2127 FMM=F ISym2X=0 I1Cent= 0 IOpClX= 0 NMat=1 NMatS=1 NMatT=0.
 ***** Axes restored to original set *****
 -------------------------------------------------------------------
 Center     Atomic                   Forces (Hartrees/Bohr)
 Number     Number              X              Y              Z
 -------------------------------------------------------------------
      1        6          -0.001106291   -0.000712889   -0.000008620
      2        6           0.003595161   -0.000026739   -0.000578384
      3        6          -0.001097465    0.000718117   -0.000012632
      4        6          -0.000831299    0.000055182    0.000759978
      5        7          -0.000238210   -0.000028039   -0.000272598
      6        1           0.000029984   -0.000180274    0.000076515
      7        1          -0.000072190   -0.000299885   -0.000086866
      8        1           0.000159433    0.000185945    0.000188274
      9        1          -0.000555413   -0.000000407   -0.000244479
     10        1           0.000160574   -0.000185729    0.000188715
     11        1           0.000028949    0.000177743    0.000077074
     12        1          -0.000073233    0.000296976   -0.000086977
 -------------------------------------------------------------------
 Cartesian Forces:  Max     0.003595161 RMS     0.000725668

 GradGradGradGradGradGradGradGradGradGradGradGradGradGradGradGradGradGrad
 Berny optimization.
 Using GEDIIS/GDIIS optimizer.
 FormGI is forming the generalized inverse of G from B-inverse, IUseBI=4.
 Internal  Forces:  Max     0.001193209 RMS     0.000360386
 Search for a local minimum.
 Step number   2 out of a maximum of   59
 All quantities printed in internal units (Hartrees-Bohrs-Radians)
 Mixed Optimization -- En-DIIS/RFO-DIIS
 Update second derivatives using D2CorX and points    1    2
 DE= -4.00D-04 DEPred=-4.10D-04 R= 9.74D-01
 TightC=F SS=  1.41D+00  RLast= 7.27D-02 DXNew= 5.0454D-01 2.1821D-01
 Trust test= 9.74D-01 RLast= 7.27D-02 DXMaxT set to 3.00D-01
 ITU=  1  0
 Use linear search instead of GDIIS.
     Eigenvalues ---    0.00348   0.00348   0.04592   0.04931   0.05090
     Eigenvalues ---    0.05355   0.05550   0.05584   0.05713   0.05720
     Eigenvalues ---    0.09162   0.15692   0.16000   0.16000   0.16000
     Eigenvalues ---    0.16000   0.16302   0.16855   0.23266   0.28872
     Eigenvalues ---    0.29274   0.34176   0.34724   0.35031   0.35054
     Eigenvalues ---    0.35059   0.35073   0.35231   0.36383   1.39137
 RFO step:  Lambda=-3.99182833D-05 EMin= 3.47629169D-03
 Quartic linear search produced a step of -0.00447.
 Iteration  1 RMS(Cart)=  0.00409253 RMS(Int)=  0.00001231
 Iteration  2 RMS(Cart)=  0.00001236 RMS(Int)=  0.00000261
 Iteration  3 RMS(Cart)=  0.00000000 RMS(Int)=  0.00000261
 Variable       Old X    -DE/DX   Delta X   Delta X   Delta X     New X
                                 (Linear)    (Quad)   (Total)
    R1        2.89702  -0.00119  -0.00001  -0.00391  -0.00392   2.89310
    R2        2.05799  -0.00019  -0.00001  -0.00043  -0.00044   2.05755
    R3        2.05939  -0.00005  -0.00002   0.00006   0.00004   2.05944
    R4        2.05966   0.00018  -0.00002   0.00069   0.00067   2.06033
    R5        2.89702  -0.00119  -0.00001  -0.00390  -0.00391   2.89311
    R6        2.76812   0.00115  -0.00016   0.00490   0.00474   2.77287
    R7        2.06452   0.00019   0.00004   0.00003   0.00008   2.06460
    R8        2.05966   0.00018  -0.00002   0.00069   0.00067   2.06033
    R9        2.05798  -0.00019  -0.00001  -0.00041  -0.00042   2.05756
   R10        2.05939  -0.00005  -0.00002   0.00006   0.00004   2.05944
   R11        2.16632   0.00017  -0.00003   0.00046   0.00044   2.16676
    A1        1.94228  -0.00003  -0.00004   0.00053   0.00048   1.94276
    A2        1.91362  -0.00052   0.00002  -0.00398  -0.00396   1.90966
    A3        1.92140   0.00045   0.00002   0.00288   0.00290   1.92430
    A4        1.89802   0.00022  -0.00000   0.00074   0.00074   1.89876
    A5        1.89246  -0.00011   0.00000   0.00027   0.00027   1.89273
    A6        1.89523   0.00000   0.00001  -0.00043  -0.00042   1.89481
    A7        1.95316  -0.00018  -0.00002  -0.00039  -0.00042   1.95273
    A8        1.92308  -0.00006  -0.00006  -0.00185  -0.00191   1.92117
    A9        1.89920   0.00024   0.00004   0.00389   0.00392   1.90313
   A10        1.92313  -0.00005  -0.00006  -0.00181  -0.00187   1.92126
   A11        1.89920   0.00024   0.00004   0.00387   0.00391   1.90311
   A12        1.86356  -0.00018   0.00005  -0.00369  -0.00364   1.85992
   A13        1.92140   0.00045   0.00002   0.00287   0.00289   1.92429
   A14        1.94228  -0.00003  -0.00004   0.00053   0.00048   1.94276
   A15        1.91362  -0.00052   0.00002  -0.00395  -0.00394   1.90969
   A16        1.89247  -0.00011   0.00000   0.00025   0.00025   1.89272
   A17        1.89522  -0.00000   0.00001  -0.00043  -0.00042   1.89480
   A18        1.89802   0.00022  -0.00000   0.00073   0.00073   1.89875
   A19        3.13845   0.00013   0.00001   0.00246   0.00247   3.14092
   A20        3.17409  -0.00054  -0.00008  -0.00966  -0.00974   3.16435
    D1        3.13105   0.00013   0.00007   0.00514   0.00521   3.13626
    D2       -1.00600  -0.00011  -0.00006   0.00121   0.00116  -1.00484
    D3        1.03169  -0.00022  -0.00000  -0.00202  -0.00203   1.02966
    D4        1.03052   0.00022   0.00009   0.00651   0.00659   1.03712
    D5       -3.10652  -0.00002  -0.00004   0.00258   0.00254  -3.10398
    D6       -1.06884  -0.00013   0.00002  -0.00066  -0.00065  -1.06949
    D7       -1.05342   0.00027   0.00006   0.00773   0.00779  -1.04562
    D8        1.09272   0.00003  -0.00007   0.00380   0.00374   1.09646
    D9        3.13040  -0.00008  -0.00001   0.00057   0.00055   3.13096
   D10        1.05379  -0.00027  -0.00006  -0.00808  -0.00814   1.04565
   D11       -3.13067  -0.00013  -0.00007  -0.00551  -0.00557  -3.13625
   D12       -1.03015  -0.00022  -0.00009  -0.00686  -0.00695  -1.03709
   D13       -1.09232  -0.00003   0.00007  -0.00413  -0.00406  -1.09638
   D14        1.00640   0.00011   0.00006  -0.00156  -0.00150   1.00490
   D15        3.10693   0.00002   0.00004  -0.00291  -0.00287   3.10406
   D16       -3.13003   0.00008   0.00001  -0.00090  -0.00089  -3.13092
   D17       -1.03131   0.00022   0.00000   0.00167   0.00168  -1.02963
   D18        1.06922   0.00013  -0.00002   0.00032   0.00030   1.06953
         Item               Value     Threshold  Converged?
 Maximum Force            0.001193     0.000450     NO 
 RMS     Force            0.000360     0.000300     NO 
 Maximum Displacement     0.014365     0.001800     NO 
 RMS     Displacement     0.004092     0.001200     NO 
 Predicted change in Energy=-1.997758D-05
 GradGradGradGradGradGradGradGradGradGradGradGradGradGradGradGradGradGrad

                          Input orientation:                          
 ---------------------------------------------------------------------
 Center     Atomic      Atomic             Coordinates (Angstroms)
 Number     Number       Type             X           Y           Z
 ---------------------------------------------------------------------
      1          6           0        1.110157    1.268462    0.160656
      2          6           0        0.462052    0.000126   -0.400703
      3          6           0        1.110158   -1.268249    0.160591
      4          6           0       -0.976847    0.000188   -0.113218
      5          7           0       -2.096939   -0.000917    0.131895
      6          1           0        0.646004    2.164383   -0.248476
      7          1           0        2.170288    1.275775   -0.091823
      8          1           0        1.011678    1.293929    1.246181
      9          1           0        0.562347    0.000142   -1.488628
     10          1           0        1.011652   -1.293783    1.246111
     11          1           0        0.646012   -2.164151   -0.248604
     12          1           0        2.170299   -1.275564   -0.091851
 ---------------------------------------------------------------------
                    Distance matrix (angstroms):
                    1          2          3          4          5
     1  C    0.000000
     2  C    1.530961   0.000000
     3  C    2.536712   1.530969   0.000000
     4  C    2.457460   1.467337   2.457539   0.000000
     5  N    3.449292   2.613828   3.448540   1.146599   0.000000
     6  H    1.088807   2.177388   3.487942   2.708446   3.515244
     7  H    1.089806   2.154242   2.767607   3.395885   4.459733
     8  H    1.090280   2.165235   2.784414   2.734221   3.547078
     9  H    2.151481   1.092538   2.151473   2.064187   3.114145
    10  H    2.784424   2.165238   1.090279   2.734276   3.546311
    11  H    3.487945   2.177400   1.088812   2.708573   3.513993
    12  H    2.767622   2.154270   1.089806   3.395957   4.459160
                    6          7          8          9         10
     6  H    0.000000
     7  H    1.771329   0.000000
     8  H    1.767882   1.770017   0.000000
     9  H    2.495779   2.482696   3.058588   0.000000
    10  H    3.785023   3.120117   2.587713   3.058580   0.000000
    11  H    4.328534   3.765778   3.785025   2.495761   1.767881
    12  H    3.765799   2.551339   3.120100   2.482724   1.770010
                   11         12
    11  H    0.000000
    12  H    1.771329   0.000000
 Stoichiometry    C4H7N
 Framework group  C1[X(C4H7N)]
 Deg. of freedom    30
 Full point group                 C1      NOp   1
 Largest Abelian subgroup         C1      NOp   1
 Largest concise Abelian subgroup C1      NOp   1
                         Standard orientation:                         
 ---------------------------------------------------------------------
 Center     Atomic      Atomic             Coordinates (Angstroms)
 Number     Number       Type             X           Y           Z
 ---------------------------------------------------------------------
      1          6           0       -1.013394    1.268005   -0.145861
      2          6           0       -0.357783    0.000015    0.407505
      3          6           0       -1.012090   -1.268706   -0.145755
      4          6           0        1.077472    0.000810    0.102347
      5          7           0        2.194465    0.000275   -0.156522
      6          1           0       -0.544706    2.164174    0.257517
      7          1           0       -2.070344    1.274779    0.119636
      8          1           0       -0.928286    1.293499   -1.232515
      9          1           0       -0.444691    0.000004    1.496582
     10          1           0       -0.926928   -1.294213   -1.232404
     11          1           0       -0.542487   -2.164360    0.257715
     12          1           0       -2.069042   -1.276560    0.119705
 ---------------------------------------------------------------------
 Rotational constants (GHZ):           8.0026847           4.0006386           2.9283073
 Standard basis: def2TZVP (5D, 7F)
 There are   222 symmetry adapted cartesian basis functions of A   symmetry.
 There are   197 symmetry adapted basis functions of A   symmetry.
   197 basis functions,   311 primitive gaussians,   222 cartesian basis functions
    19 alpha electrons       19 beta electrons
       nuclear repulsion energy       159.7391944870 Hartrees.
 NAtoms=   12 NActive=   12 NUniq=   12 SFac= 1.00D+00 NAtFMM=   60 NAOKFM=F Big=F
 Integral buffers will be    131072 words long.
 Raffenetti 2 integral format.
 Two-electron integral symmetry is turned on.
 One-electron integrals computed using PRISM.
   1 Symmetry operations used in ECPInt.
 ECPInt:  NShTT=    3486 NPrTT=   10284 LenC2=    3465 LenP2D=    8698.
 LDataN:  DoStor=T MaxTD1= 6 Len=  172
 NBasis=   197 RedAO= T EigKep=  1.01D-04  NBF=   197
 NBsUse=   197 1.00D-06 EigRej= -1.00D+00 NBFU=   197
 Initial guess from the checkpoint file:  "/home/svss/projects/Project-Philicity/GS/hydrocarbon/set-1/GS/mol_16_hc/mol_16_hc.chk"
 B after Tr=     0.000000   -0.000000   -0.000000
         Rot=    1.000000    0.000057   -0.000300   -0.000349 Ang=   0.05 deg.
 Keep R1 ints in memory in canonical form, NReq=198610726.
 Requested convergence on RMS density matrix=1.00D-08 within 128 cycles.
 Requested convergence on MAX density matrix=1.00D-06.
 Requested convergence on             energy=1.00D-06.
 No special actions if energy rises.
 SCF Done:  E(RM062X) =  -211.361587278     A.U. after    9 cycles
            NFock=  9  Conv=0.37D-08     -V/T= 2.0050
   1 Symmetry operations used in ECPInt.
 ECPInt:  NShTT=    3486 NPrTT=   10284 LenC2=    3465 LenP2D=    8698.
 LDataN:  DoStor=T MaxTD1= 7 Len=  274
 Calling FoFJK, ICntrl=      2127 FMM=F ISym2X=0 I1Cent= 0 IOpClX= 0 NMat=1 NMatS=1 NMatT=0.
 ***** Axes restored to original set *****
 -------------------------------------------------------------------
 Center     Atomic                   Forces (Hartrees/Bohr)
 Number     Number              X              Y              Z
 -------------------------------------------------------------------
      1        6          -0.000199257   -0.000138496   -0.000070259
      2        6           0.000457759    0.000040954    0.000352364
      3        6          -0.000226909    0.000134800   -0.000062275
      4        6          -0.000553058   -0.000093755    0.000011833
      5        7           0.000412308    0.000042211   -0.000089271
      6        1           0.000057483   -0.000012865    0.000030334
      7        1           0.000041672    0.000072689    0.000057331
      8        1           0.000043576    0.000009255   -0.000099501
      9        1          -0.000173399    0.000002805   -0.000115685
     10        1           0.000042932   -0.000009752   -0.000099249
     11        1           0.000056938    0.000017100    0.000031704
     12        1           0.000039956   -0.000064947    0.000052673
 -------------------------------------------------------------------
 Cartesian Forces:  Max     0.000553058 RMS     0.000171776

 GradGradGradGradGradGradGradGradGradGradGradGradGradGradGradGradGradGrad
 Berny optimization.
 Using GEDIIS/GDIIS optimizer.
 FormGI is forming the generalized inverse of G from B-inverse, IUseBI=4.
 Internal  Forces:  Max     0.000421700 RMS     0.000085172
 Search for a local minimum.
 Step number   3 out of a maximum of   59
 All quantities printed in internal units (Hartrees-Bohrs-Radians)
 Mixed Optimization -- En-DIIS/RFO-DIIS
 Swapping is turned off.
 Update second derivatives using D2CorX and points    1    2    3
 DE= -2.07D-05 DEPred=-2.00D-05 R= 1.04D+00
 TightC=F SS=  1.41D+00  RLast= 2.43D-02 DXNew= 5.0454D-01 7.2937D-02
 Trust test= 1.04D+00 RLast= 2.43D-02 DXMaxT set to 3.00D-01
 ITU=  1  1  0
     Eigenvalues ---    0.00348   0.00350   0.04120   0.04853   0.05098
     Eigenvalues ---    0.05420   0.05542   0.05661   0.05724   0.05825
     Eigenvalues ---    0.09184   0.15689   0.16000   0.16000   0.16000
     Eigenvalues ---    0.16056   0.16806   0.17249   0.23327   0.27468
     Eigenvalues ---    0.29277   0.34035   0.34828   0.35031   0.35054
     Eigenvalues ---    0.35073   0.35137   0.35316   0.36350   1.40850
 En-DIIS/RFO-DIIS/Sim-DIIS IScMMF=       -3 using points:     3    2
 RFO step:  Lambda=-1.76919078D-06.
 DidBck=F Rises=F RFO-DIIS coefs:    1.03256   -0.03256
 Iteration  1 RMS(Cart)=  0.00068890 RMS(Int)=  0.00000072
 Iteration  2 RMS(Cart)=  0.00000077 RMS(Int)=  0.00000029
 Variable       Old X    -DE/DX   Delta X   Delta X   Delta X     New X
                                 (Linear)    (Quad)   (Total)
    R1        2.89310  -0.00011  -0.00013  -0.00044  -0.00057   2.89253
    R2        2.05755  -0.00005  -0.00001  -0.00014  -0.00015   2.05740
    R3        2.05944   0.00003   0.00000   0.00010   0.00010   2.05953
    R4        2.06033  -0.00010   0.00002  -0.00029  -0.00026   2.06007
    R5        2.89311  -0.00013  -0.00013  -0.00050  -0.00063   2.89248
    R6        2.77287   0.00012   0.00015   0.00052   0.00068   2.77354
    R7        2.06460   0.00010   0.00000   0.00027   0.00027   2.06487
    R8        2.06033  -0.00010   0.00002  -0.00029  -0.00026   2.06007
    R9        2.05756  -0.00005  -0.00001  -0.00015  -0.00016   2.05739
   R10        2.05944   0.00003   0.00000   0.00010   0.00010   2.05953
   R11        2.16676  -0.00042   0.00001  -0.00029  -0.00027   2.16648
    A1        1.94276   0.00004   0.00002   0.00037   0.00039   1.94315
    A2        1.90966   0.00012  -0.00013   0.00072   0.00059   1.91025
    A3        1.92430   0.00001   0.00009  -0.00001   0.00009   1.92439
    A4        1.89876  -0.00007   0.00002  -0.00034  -0.00032   1.89844
    A5        1.89273  -0.00003   0.00001  -0.00017  -0.00016   1.89257
    A6        1.89481  -0.00008  -0.00001  -0.00062  -0.00063   1.89418
    A7        1.95273   0.00006  -0.00001   0.00074   0.00073   1.95346
    A8        1.92117   0.00001  -0.00006   0.00015   0.00008   1.92126
    A9        1.90313   0.00001   0.00013   0.00047   0.00060   1.90373
   A10        1.92126  -0.00003  -0.00006  -0.00010  -0.00016   1.92110
   A11        1.90311   0.00002   0.00013   0.00051   0.00064   1.90375
   A12        1.85992  -0.00008  -0.00012  -0.00189  -0.00201   1.85792
   A13        1.92429   0.00001   0.00009   0.00002   0.00011   1.92441
   A14        1.94276   0.00004   0.00002   0.00037   0.00039   1.94315
   A15        1.90969   0.00011  -0.00013   0.00063   0.00050   1.91019
   A16        1.89272  -0.00003   0.00001  -0.00016  -0.00015   1.89257
   A17        1.89480  -0.00007  -0.00001  -0.00059  -0.00060   1.89419
   A18        1.89875  -0.00007   0.00002  -0.00031  -0.00029   1.89846
   A19        3.14092  -0.00009   0.00008  -0.00184  -0.00176   3.13916
   A20        3.16435  -0.00000  -0.00032  -0.00014  -0.00046   3.16389
    D1        3.13626   0.00002   0.00017  -0.00035  -0.00018   3.13609
    D2       -1.00484   0.00004   0.00004   0.00014   0.00018  -1.00466
    D3        1.02966  -0.00005  -0.00007  -0.00178  -0.00185   1.02781
    D4        1.03712   0.00000   0.00021  -0.00064  -0.00042   1.03670
    D5       -3.10398   0.00002   0.00008  -0.00015  -0.00006  -3.10405
    D6       -1.06949  -0.00006  -0.00002  -0.00207  -0.00209  -1.07158
    D7       -1.04562   0.00002   0.00025  -0.00032  -0.00007  -1.04569
    D8        1.09646   0.00004   0.00012   0.00017   0.00029   1.09675
    D9        3.13096  -0.00005   0.00002  -0.00176  -0.00174   3.12922
   D10        1.04565  -0.00001  -0.00026   0.00027   0.00000   1.04565
   D11       -3.13625  -0.00001  -0.00018   0.00032   0.00014  -3.13611
   D12       -1.03709   0.00001  -0.00023   0.00059   0.00036  -1.03673
   D13       -1.09638  -0.00005  -0.00013  -0.00036  -0.00049  -1.09688
   D14        1.00490  -0.00005  -0.00005  -0.00030  -0.00035   1.00455
   D15        3.10406  -0.00003  -0.00009  -0.00004  -0.00013   3.10393
   D16       -3.13092   0.00005  -0.00003   0.00168   0.00165  -3.12927
   D17       -1.02963   0.00005   0.00005   0.00174   0.00179  -1.02784
   D18        1.06953   0.00006   0.00001   0.00200   0.00201   1.07154
         Item               Value     Threshold  Converged?
 Maximum Force            0.000422     0.000450     YES
 RMS     Force            0.000085     0.000300     YES
 Maximum Displacement     0.002719     0.001800     NO 
 RMS     Displacement     0.000689     0.001200     YES
 Predicted change in Energy=-8.848669D-07
 GradGradGradGradGradGradGradGradGradGradGradGradGradGradGradGradGradGrad

                          Input orientation:                          
 ---------------------------------------------------------------------
 Center     Atomic      Atomic             Coordinates (Angstroms)
 Number     Number       Type             X           Y           Z
 ---------------------------------------------------------------------
      1          6           0        1.110019    1.268437    0.160579
      2          6           0        0.462503   -0.000036   -0.400328
      3          6           0        1.110317   -1.268369    0.160484
      4          6           0       -0.976823   -0.000354   -0.113146
      5          7           0       -2.096885    0.000295    0.131429
      6          1           0        0.645896    2.164254   -0.248602
      7          1           0        2.170337    1.276468   -0.091322
      8          1           0        1.011613    1.294229    1.245962
      9          1           0        0.560908    0.000025   -1.488572
     10          1           0        1.011958   -1.294258    1.245869
     11          1           0        0.646397   -2.164269   -0.248744
     12          1           0        2.170621   -1.276083   -0.091478
 ---------------------------------------------------------------------
                    Distance matrix (angstroms):
                    1          2          3          4          5
     1  C    0.000000
     2  C    1.530659   0.000000
     3  C    2.536806   1.530635   0.000000
     4  C    2.457573   1.467696   2.457416   0.000000
     5  N    3.448662   2.614045   3.449130   1.146454   0.000000
     6  H    1.088727   2.177338   3.487970   2.708706   3.514255
     7  H    1.089859   2.154447   2.768257   3.396375   4.459531
     8  H    1.090140   2.164928   2.784765   2.734410   3.546718
     9  H    2.151765   1.092684   2.151757   2.063107   3.112598
    10  H    2.784758   2.164920   1.090140   2.734294   3.547217
    11  H    3.487974   2.177315   1.088726   2.708460   3.515034
    12  H    2.768211   2.154380   1.089858   3.396228   4.459870
                    6          7          8          9         10
     6  H    0.000000
     7  H    1.771107   0.000000
     8  H    1.767601   1.769544   0.000000
     9  H    2.495723   2.484326   3.058721   0.000000
    10  H    3.785333   3.120666   2.588487   3.058722   0.000000
    11  H    4.328522   3.766410   3.785332   2.495726   1.767603
    12  H    3.766350   2.552551   3.120665   2.484250   1.769556
                   11         12
    11  H    0.000000
    12  H    1.771121   0.000000
 Stoichiometry    C4H7N
 Framework group  C1[X(C4H7N)]
 Deg. of freedom    30
 Full point group                 C1      NOp   1
 Largest Abelian subgroup         C1      NOp   1
 Largest concise Abelian subgroup C1      NOp   1
                         Standard orientation:                         
 ---------------------------------------------------------------------
 Center     Atomic      Atomic             Coordinates (Angstroms)
 Number     Number       Type             X           Y           Z
 ---------------------------------------------------------------------
      1          6           0       -1.012326    1.268615   -0.145562
      2          6           0       -0.358102   -0.000013    0.407152
      3          6           0       -1.013076   -1.268191   -0.145639
      4          6           0        1.077536   -0.000566    0.102070
      5          7           0        2.194466   -0.000099   -0.156433
      6          1           0       -0.542984    2.164319    0.257871
      7          1           0       -2.069423    1.276817    0.119524
      8          1           0       -0.927438    1.294467   -1.232084
      9          1           0       -0.442949   -0.000013    1.496536
     10          1           0       -0.928244   -1.294020   -1.232166
     11          1           0       -0.544256   -2.164203    0.257718
     12          1           0       -2.070162   -1.275734    0.119505
 ---------------------------------------------------------------------
 Rotational constants (GHZ):           8.0026512           4.0007911           2.9281229
 Standard basis: def2TZVP (5D, 7F)
 There are   222 symmetry adapted cartesian basis functions of A   symmetry.
 There are   197 symmetry adapted basis functions of A   symmetry.
   197 basis functions,   311 primitive gaussians,   222 cartesian basis functions
    19 alpha electrons       19 beta electrons
       nuclear repulsion energy       159.7428993707 Hartrees.
 NAtoms=   12 NActive=   12 NUniq=   12 SFac= 1.00D+00 NAtFMM=   60 NAOKFM=F Big=F
 Integral buffers will be    131072 words long.
 Raffenetti 2 integral format.
 Two-electron integral symmetry is turned on.
 One-electron integrals computed using PRISM.
   1 Symmetry operations used in ECPInt.
 ECPInt:  NShTT=    3486 NPrTT=   10284 LenC2=    3465 LenP2D=    8698.
 LDataN:  DoStor=T MaxTD1= 6 Len=  172
 NBasis=   197 RedAO= T EigKep=  1.01D-04  NBF=   197
 NBsUse=   197 1.00D-06 EigRej= -1.00D+00 NBFU=   197
 Initial guess from the checkpoint file:  "/home/svss/projects/Project-Philicity/GS/hydrocarbon/set-1/GS/mol_16_hc/mol_16_hc.chk"
 B after Tr=    -0.000000    0.000000    0.000000
         Rot=    1.000000   -0.000060   -0.000033    0.000286 Ang=  -0.03 deg.
 Keep R1 ints in memory in canonical form, NReq=198610726.
 Requested convergence on RMS density matrix=1.00D-08 within 128 cycles.
 Requested convergence on MAX density matrix=1.00D-06.
 Requested convergence on             energy=1.00D-06.
 No special actions if energy rises.
 SCF Done:  E(RM062X) =  -211.361588184     A.U. after    8 cycles
            NFock=  8  Conv=0.27D-08     -V/T= 2.0050
   1 Symmetry operations used in ECPInt.
 ECPInt:  NShTT=    3486 NPrTT=   10284 LenC2=    3465 LenP2D=    8698.
 LDataN:  DoStor=T MaxTD1= 7 Len=  274
 Calling FoFJK, ICntrl=      2127 FMM=F ISym2X=0 I1Cent= 0 IOpClX= 0 NMat=1 NMatS=1 NMatT=0.
 ***** Axes restored to original set *****
 -------------------------------------------------------------------
 Center     Atomic                   Forces (Hartrees/Bohr)
 Number     Number              X              Y              Z
 -------------------------------------------------------------------
      1        6          -0.000045001   -0.000059175   -0.000039552
      2        6           0.000011728   -0.000030624    0.000085497
      3        6          -0.000011576    0.000056181   -0.000047817
      4        6          -0.000056980    0.000081590    0.000031458
      5        7           0.000057335   -0.000033621   -0.000023427
      6        1           0.000004456    0.000006496   -0.000004577
      7        1           0.000008799    0.000020831    0.000013110
      8        1           0.000004248   -0.000000129    0.000001987
      9        1           0.000003326   -0.000002151   -0.000032557
     10        1           0.000004877    0.000001115    0.000001922
     11        1           0.000007178   -0.000008510   -0.000005084
     12        1           0.000011610   -0.000032003    0.000019040
 -------------------------------------------------------------------
 Cartesian Forces:  Max     0.000085497 RMS     0.000033531

 GradGradGradGradGradGradGradGradGradGradGradGradGradGradGradGradGradGrad
 Berny optimization.
 Using GEDIIS/GDIIS optimizer.
 FormGI is forming the generalized inverse of G from B-inverse, IUseBI=4.
 Internal  Forces:  Max     0.000074420 RMS     0.000021197
 Search for a local minimum.
 Step number   4 out of a maximum of   59
 All quantities printed in internal units (Hartrees-Bohrs-Radians)
 Mixed Optimization -- En-DIIS/RFO-DIIS
 Swapping is turned off.
 Update second derivatives using D2CorX and points    1    2    3    4
 DE= -9.06D-07 DEPred=-8.85D-07 R= 1.02D+00
 Trust test= 1.02D+00 RLast= 5.81D-03 DXMaxT set to 3.00D-01
 ITU=  0  1  1  0
     Eigenvalues ---    0.00346   0.00348   0.03720   0.04796   0.05350
     Eigenvalues ---    0.05538   0.05626   0.05717   0.05721   0.06515
     Eigenvalues ---    0.09209   0.15134   0.15914   0.16000   0.16000
     Eigenvalues ---    0.16040   0.16626   0.17141   0.23222   0.26559
     Eigenvalues ---    0.29333   0.33779   0.34820   0.35031   0.35054
     Eigenvalues ---    0.35073   0.35215   0.35357   0.36330   1.38489
 En-DIIS/RFO-DIIS/Sim-DIIS IScMMF=       -3 using points:     4    3    2
 RFO step:  Lambda=-1.95276540D-07.
 DidBck=F Rises=F RFO-DIIS coefs:    1.16974   -0.17880    0.00906
 Iteration  1 RMS(Cart)=  0.00036330 RMS(Int)=  0.00000022
 Iteration  2 RMS(Cart)=  0.00000025 RMS(Int)=  0.00000002
 Variable       Old X    -DE/DX   Delta X   Delta X   Delta X     New X
                                 (Linear)    (Quad)   (Total)
    R1        2.89253  -0.00005  -0.00006  -0.00019  -0.00025   2.89228
    R2        2.05740   0.00001  -0.00002   0.00002  -0.00000   2.05739
    R3        2.05953   0.00001   0.00002   0.00001   0.00003   2.05956
    R4        2.06007   0.00000  -0.00005   0.00003  -0.00002   2.06005
    R5        2.89248  -0.00002  -0.00007  -0.00009  -0.00016   2.89232
    R6        2.77354   0.00000   0.00007   0.00004   0.00011   2.77365
    R7        2.06487   0.00003   0.00005   0.00008   0.00013   2.06500
    R8        2.06007   0.00000  -0.00005   0.00003  -0.00002   2.06005
    R9        2.05739   0.00001  -0.00002   0.00002  -0.00000   2.05739
   R10        2.05953   0.00001   0.00002   0.00002   0.00003   2.05957
   R11        2.16648  -0.00006  -0.00005  -0.00002  -0.00007   2.16641
    A1        1.94315   0.00000   0.00006  -0.00001   0.00005   1.94320
    A2        1.91025   0.00003   0.00014   0.00014   0.00028   1.91053
    A3        1.92439  -0.00000  -0.00001   0.00000  -0.00001   1.92438
    A4        1.89844  -0.00002  -0.00006  -0.00006  -0.00012   1.89832
    A5        1.89257   0.00000  -0.00003  -0.00000  -0.00003   1.89253
    A6        1.89418  -0.00002  -0.00010  -0.00007  -0.00017   1.89400
    A7        1.95346   0.00003   0.00013   0.00010   0.00023   1.95368
    A8        1.92126  -0.00003   0.00003  -0.00018  -0.00015   1.92111
    A9        1.90373  -0.00000   0.00007  -0.00003   0.00004   1.90377
   A10        1.92110   0.00001  -0.00001   0.00011   0.00010   1.92120
   A11        1.90375  -0.00001   0.00007  -0.00006   0.00001   1.90376
   A12        1.85792   0.00001  -0.00031   0.00006  -0.00025   1.85767
   A13        1.92441  -0.00001  -0.00001  -0.00004  -0.00004   1.92436
   A14        1.94315   0.00000   0.00006  -0.00001   0.00005   1.94320
   A15        1.91019   0.00005   0.00012   0.00028   0.00040   1.91059
   A16        1.89257   0.00000  -0.00003  -0.00002  -0.00005   1.89253
   A17        1.89419  -0.00002  -0.00010  -0.00011  -0.00021   1.89398
   A18        1.89846  -0.00003  -0.00006  -0.00011  -0.00016   1.89830
   A19        3.13916   0.00007  -0.00032   0.00167   0.00135   3.14051
   A20        3.16389  -0.00001   0.00001  -0.00032  -0.00031   3.16358
    D1        3.13609  -0.00001  -0.00008  -0.00022  -0.00030   3.13578
    D2       -1.00466   0.00001   0.00002  -0.00014  -0.00012  -1.00478
    D3        1.02781  -0.00000  -0.00030  -0.00019  -0.00048   1.02733
    D4        1.03670  -0.00001  -0.00013  -0.00023  -0.00036   1.03633
    D5       -3.10405   0.00001  -0.00003  -0.00015  -0.00018  -3.10423
    D6       -1.07158  -0.00001  -0.00035  -0.00020  -0.00055  -1.07212
    D7       -1.04569  -0.00001  -0.00008  -0.00024  -0.00032  -1.04601
    D8        1.09675   0.00001   0.00002  -0.00015  -0.00013   1.09662
    D9        3.12922  -0.00001  -0.00030  -0.00020  -0.00050   3.12872
   D10        1.04565  -0.00000   0.00007   0.00029   0.00037   1.04602
   D11       -3.13611  -0.00001   0.00007   0.00024   0.00031  -3.13579
   D12       -1.03673  -0.00000   0.00012   0.00028   0.00040  -1.03633
   D13       -1.09688   0.00001  -0.00005   0.00037   0.00033  -1.09655
   D14        1.00455   0.00000  -0.00005   0.00032   0.00027   1.00482
   D15        3.10393   0.00001   0.00000   0.00036   0.00036   3.10429
   D16       -3.12927   0.00000   0.00029   0.00027   0.00056  -3.12870
   D17       -1.02784  -0.00000   0.00029   0.00022   0.00051  -1.02733
   D18        1.07154   0.00000   0.00034   0.00026   0.00060   1.07213
         Item               Value     Threshold  Converged?
 Maximum Force            0.000074     0.000450     YES
 RMS     Force            0.000021     0.000300     YES
 Maximum Displacement     0.001556     0.001800     YES
 RMS     Displacement     0.000363     0.001200     YES
 Predicted change in Energy=-9.761361D-08
 Optimization completed.
    -- Stationary point found.
                           ----------------------------
                           !   Optimized Parameters   !
                           ! (Angstroms and Degrees)  !
 --------------------------                            --------------------------
 ! Name  Definition              Value          Derivative Info.                !
 --------------------------------------------------------------------------------
 ! R1    R(1,2)                  1.5307         -DE/DX =    0.0                 !
 ! R2    R(1,6)                  1.0887         -DE/DX =    0.0                 !
 ! R3    R(1,7)                  1.0899         -DE/DX =    0.0                 !
 ! R4    R(1,8)                  1.0901         -DE/DX =    0.0                 !
 ! R5    R(2,3)                  1.5306         -DE/DX =    0.0                 !
 ! R6    R(2,4)                  1.4677         -DE/DX =    0.0                 !
 ! R7    R(2,9)                  1.0927         -DE/DX =    0.0                 !
 ! R8    R(3,10)                 1.0901         -DE/DX =    0.0                 !
 ! R9    R(3,11)                 1.0887         -DE/DX =    0.0                 !
 ! R10   R(3,12)                 1.0899         -DE/DX =    0.0                 !
 ! R11   R(4,5)                  1.1465         -DE/DX =   -0.0001              !
 ! A1    A(2,1,6)              111.3344         -DE/DX =    0.0                 !
 ! A2    A(2,1,7)              109.4493         -DE/DX =    0.0                 !
 ! A3    A(2,1,8)              110.2593         -DE/DX =    0.0                 !
 ! A4    A(6,1,7)              108.7726         -DE/DX =    0.0                 !
 ! A5    A(6,1,8)              108.436          -DE/DX =    0.0                 !
 ! A6    A(7,1,8)              108.5282         -DE/DX =    0.0                 !
 ! A7    A(1,2,3)              111.925          -DE/DX =    0.0                 !
 ! A8    A(1,2,4)              110.08           -DE/DX =    0.0                 !
 ! A9    A(1,2,9)              109.0756         -DE/DX =    0.0                 !
 ! A10   A(3,2,4)              110.0708         -DE/DX =    0.0                 !
 ! A11   A(3,2,9)              109.0767         -DE/DX =    0.0                 !
 ! A12   A(4,2,9)              106.4507         -DE/DX =    0.0                 !
 ! A13   A(2,3,10)             110.2603         -DE/DX =    0.0                 !
 ! A14   A(2,3,11)             111.3342         -DE/DX =    0.0                 !
 ! A15   A(2,3,12)             109.4458         -DE/DX =    0.0001              !
 ! A16   A(10,3,11)            108.4363         -DE/DX =    0.0                 !
 ! A17   A(10,3,12)            108.5294         -DE/DX =    0.0                 !
 ! A18   A(11,3,12)            108.774          -DE/DX =    0.0                 !
 ! A19   L(2,4,5,6,-1)         179.8606         -DE/DX =    0.0001              !
 ! A20   L(2,4,5,6,-2)         181.2776         -DE/DX =    0.0                 !
 ! D1    D(6,1,2,3)            179.6845         -DE/DX =    0.0                 !
 ! D2    D(6,1,2,4)            -57.5628         -DE/DX =    0.0                 !
 ! D3    D(6,1,2,9)             58.8891         -DE/DX =    0.0                 !
 ! D4    D(7,1,2,3)             59.3984         -DE/DX =    0.0                 !
 ! D5    D(7,1,2,4)           -177.8489         -DE/DX =    0.0                 !
 ! D6    D(7,1,2,9)            -61.397          -DE/DX =    0.0                 !
 ! D7    D(8,1,2,3)            -59.9136         -DE/DX =    0.0                 !
 ! D8    D(8,1,2,4)             62.8391         -DE/DX =    0.0                 !
 ! D9    D(8,1,2,9)            179.291          -DE/DX =    0.0                 !
 ! D10   D(1,2,3,10)            59.9116         -DE/DX =    0.0                 !
 ! D11   D(1,2,3,11)          -179.6856         -DE/DX =    0.0                 !
 ! D12   D(1,2,3,12)           -59.4002         -DE/DX =    0.0                 !
 ! D13   D(4,2,3,10)           -62.8464         -DE/DX =    0.0                 !
 ! D14   D(4,2,3,11)            57.5565         -DE/DX =    0.0                 !
 ! D15   D(4,2,3,12)           177.8418         -DE/DX =    0.0                 !
 ! D16   D(9,2,3,10)          -179.2937         -DE/DX =    0.0                 !
 ! D17   D(9,2,3,11)           -58.8908         -DE/DX =    0.0                 !
 ! D18   D(9,2,3,12)            61.3945         -DE/DX =    0.0                 !
 --------------------------------------------------------------------------------
 GradGradGradGradGradGradGradGradGradGradGradGradGradGradGradGradGradGrad

                          Input orientation:                          
 ---------------------------------------------------------------------
 Center     Atomic      Atomic             Coordinates (Angstroms)
 Number     Number       Type             X           Y           Z
 ---------------------------------------------------------------------
      1          6           0        1.110019    1.268437    0.160579
      2          6           0        0.462503   -0.000036   -0.400328
      3          6           0        1.110317   -1.268369    0.160484
      4          6           0       -0.976823   -0.000354   -0.113146
      5          7           0       -2.096885    0.000295    0.131429
      6          1           0        0.645896    2.164254   -0.248602
      7          1           0        2.170337    1.276468   -0.091322
      8          1           0        1.011613    1.294229    1.245962
      9          1           0        0.560908    0.000025   -1.488572
     10          1           0        1.011958   -1.294258    1.245869
     11          1           0        0.646397   -2.164269   -0.248744
     12          1           0        2.170621   -1.276083   -0.091478
 ---------------------------------------------------------------------
                    Distance matrix (angstroms):
                    1          2          3          4          5
     1  C    0.000000
     2  C    1.530659   0.000000
     3  C    2.536806   1.530635   0.000000
     4  C    2.457573   1.467696   2.457416   0.000000
     5  N    3.448662   2.614045   3.449130   1.146454   0.000000
     6  H    1.088727   2.177338   3.487970   2.708706   3.514255
     7  H    1.089859   2.154447   2.768257   3.396375   4.459531
     8  H    1.090140   2.164928   2.784765   2.734410   3.546718
     9  H    2.151765   1.092684   2.151757   2.063107   3.112598
    10  H    2.784758   2.164920   1.090140   2.734294   3.547217
    11  H    3.487974   2.177315   1.088726   2.708460   3.515034
    12  H    2.768211   2.154380   1.089858   3.396228   4.459870
                    6          7          8          9         10
     6  H    0.000000
     7  H    1.771107   0.000000
     8  H    1.767601   1.769544   0.000000
     9  H    2.495723   2.484326   3.058721   0.000000
    10  H    3.785333   3.120666   2.588487   3.058722   0.000000
    11  H    4.328522   3.766410   3.785332   2.495726   1.767603
    12  H    3.766350   2.552551   3.120665   2.484250   1.769556
                   11         12
    11  H    0.000000
    12  H    1.771121   0.000000
 Stoichiometry    C4H7N
 Framework group  C1[X(C4H7N)]
 Deg. of freedom    30
 Full point group                 C1      NOp   1
 Largest Abelian subgroup         C1      NOp   1
 Largest concise Abelian subgroup C1      NOp   1
                         Standard orientation:                         
 ---------------------------------------------------------------------
 Center     Atomic      Atomic             Coordinates (Angstroms)
 Number     Number       Type             X           Y           Z
 ---------------------------------------------------------------------
      1          6           0       -1.012326    1.268615   -0.145562
      2          6           0       -0.358102   -0.000013    0.407152
      3          6           0       -1.013076   -1.268191   -0.145639
      4          6           0        1.077536   -0.000566    0.102070
      5          7           0        2.194466   -0.000099   -0.156433
      6          1           0       -0.542984    2.164319    0.257871
      7          1           0       -2.069423    1.276817    0.119524
      8          1           0       -0.927438    1.294467   -1.232084
      9          1           0       -0.442949   -0.000013    1.496536
     10          1           0       -0.928244   -1.294020   -1.232166
     11          1           0       -0.544256   -2.164203    0.257718
     12          1           0       -2.070162   -1.275734    0.119505
 ---------------------------------------------------------------------
 Rotational constants (GHZ):           8.0026512           4.0007911           2.9281229

 **********************************************************************

            Population analysis using the SCF Density.

 **********************************************************************

 Orbital symmetries:
       Occupied  (A) (A) (A) (A) (A) (A) (A) (A) (A) (A) (A) (A)
[...]
   D10        1.04565  -0.00000   0.00000   0.00036   0.00036   1.04601
   D11       -3.13611  -0.00001   0.00000   0.00030   0.00030  -3.13580
   D12       -1.03673  -0.00000   0.00000   0.00035   0.00035  -1.03638
   D13       -1.09688   0.00001   0.00000   0.00033   0.00033  -1.09655
   D14        1.00455   0.00000   0.00000   0.00027   0.00027   1.00482
   D15        3.10393   0.00001   0.00000   0.00032   0.00032   3.10424
   D16       -3.12927   0.00000   0.00000   0.00044   0.00044  -3.12882
   D17       -1.02784  -0.00000   0.00000   0.00039   0.00039  -1.02745
   D18        1.07154   0.00000   0.00000   0.00043   0.00043   1.07197
         Item               Value     Threshold  Converged?
 Maximum Force            0.000074     0.000450     YES
 RMS     Force            0.000021     0.000300     YES
 Maximum Displacement     0.000919     0.001800     YES
 RMS     Displacement     0.000290     0.001200     YES
 Predicted change in Energy=-7.349189D-08
 Optimization completed.
    -- Stationary point found.
                           ----------------------------
                           !   Optimized Parameters   !
                           ! (Angstroms and Degrees)  !
 --------------------------                            --------------------------
 ! Name  Definition              Value          Derivative Info.                !
 --------------------------------------------------------------------------------
 ! R1    R(1,2)                  1.5307         -DE/DX =    0.0                 !
 ! R2    R(1,6)                  1.0887         -DE/DX =    0.0                 !
 ! R3    R(1,7)                  1.0899         -DE/DX =    0.0                 !
 ! R4    R(1,8)                  1.0901         -DE/DX =    0.0                 !
 ! R5    R(2,3)                  1.5306         -DE/DX =    0.0                 !
 ! R6    R(2,4)                  1.4677         -DE/DX =    0.0                 !
 ! R7    R(2,9)                  1.0927         -DE/DX =    0.0                 !
 ! R8    R(3,10)                 1.0901         -DE/DX =    0.0                 !
 ! R9    R(3,11)                 1.0887         -DE/DX =    0.0                 !
 ! R10   R(3,12)                 1.0899         -DE/DX =    0.0                 !
 ! R11   R(4,5)                  1.1465         -DE/DX =   -0.0001              !
 ! A1    A(2,1,6)              111.3344         -DE/DX =    0.0                 !
 ! A2    A(2,1,7)              109.4493         -DE/DX =    0.0                 !
 ! A3    A(2,1,8)              110.2593         -DE/DX =    0.0                 !
 ! A4    A(6,1,7)              108.7726         -DE/DX =    0.0                 !
 ! A5    A(6,1,8)              108.436          -DE/DX =    0.0                 !
 ! A6    A(7,1,8)              108.5282         -DE/DX =    0.0                 !
 ! A7    A(1,2,3)              111.925          -DE/DX =    0.0                 !
 ! A8    A(1,2,4)              110.08           -DE/DX =    0.0                 !
 ! A9    A(1,2,9)              109.0756         -DE/DX =    0.0                 !
 ! A10   A(3,2,4)              110.0708         -DE/DX =    0.0                 !
 ! A11   A(3,2,9)              109.0767         -DE/DX =    0.0                 !
 ! A12   A(4,2,9)              106.4507         -DE/DX =    0.0                 !
 ! A13   A(2,3,10)             110.2603         -DE/DX =    0.0                 !
 ! A14   A(2,3,11)             111.3342         -DE/DX =    0.0                 !
 ! A15   A(2,3,12)             109.4458         -DE/DX =    0.0001              !
 ! A16   A(10,3,11)            108.4363         -DE/DX =    0.0                 !
 ! A17   A(10,3,12)            108.5294         -DE/DX =    0.0                 !
 ! A18   A(11,3,12)            108.774          -DE/DX =    0.0                 !
 ! A19   L(2,4,5,6,-1)         179.8606         -DE/DX =    0.0001              !
 ! A20   L(2,4,5,6,-2)         181.2776         -DE/DX =    0.0                 !
 ! D1    D(6,1,2,3)            179.6845         -DE/DX =    0.0                 !
 ! D2    D(6,1,2,4)            -57.5628         -DE/DX =    0.0                 !
 ! D3    D(6,1,2,9)             58.8891         -DE/DX =    0.0                 !
 ! D4    D(7,1,2,3)             59.3984         -DE/DX =    0.0                 !
 ! D5    D(7,1,2,4)           -177.8489         -DE/DX =    0.0                 !
 ! D6    D(7,1,2,9)            -61.397          -DE/DX =    0.0                 !
 ! D7    D(8,1,2,3)            -59.9136         -DE/DX =    0.0                 !
 ! D8    D(8,1,2,4)             62.8391         -DE/DX =    0.0                 !
 ! D9    D(8,1,2,9)            179.291          -DE/DX =    0.0                 !
 ! D10   D(1,2,3,10)            59.9116         -DE/DX =    0.0                 !
 ! D11   D(1,2,3,11)          -179.6856         -DE/DX =    0.0                 !
 ! D12   D(1,2,3,12)           -59.4002         -DE/DX =    0.0                 !
 ! D13   D(4,2,3,10)           -62.8464         -DE/DX =    0.0                 !
 ! D14   D(4,2,3,11)            57.5565         -DE/DX =    0.0                 !
 ! D15   D(4,2,3,12)           177.8418         -DE/DX =    0.0                 !
 ! D16   D(9,2,3,10)          -179.2937         -DE/DX =    0.0                 !
 ! D17   D(9,2,3,11)           -58.8908         -DE/DX =    0.0                 !
 ! D18   D(9,2,3,12)            61.3945         -DE/DX =    0.0                 !
 --------------------------------------------------------------------------------
 GradGradGradGradGradGradGradGradGradGradGradGradGradGradGradGradGradGrad


 ----------------------------------------------------------------------

 Electric dipole moment (input orientation):
 (Debye = 10**-18 statcoulomb cm , SI units = C m)
                  (au)            (Debye)         (10**-30 SI)
   Tot        0.162651D+01      0.413418D+01      0.137901D+02
   x          0.160342D+01      0.407548D+01      0.135943D+02
   y         -0.166956D-03     -0.424361D-03     -0.141552D-02
   z         -0.273118D+00     -0.694196D+00     -0.231559D+01

 Dipole polarizability, Alpha (input orientation).
 (esu units = cm**3 , SI units = C**2 m**2 J**-1)
 Alpha(0;0):
               (au)            (10**-24 esu)      (10**-40 SI)
   iso        0.503302D+02      0.745816D+01      0.829833D+01
   aniso      0.164986D+02      0.244483D+01      0.272025D+01
   xx         0.606383D+02      0.898567D+01      0.999791D+01
   yx        -0.431159D-02     -0.638911D-03     -0.710885D-03
   yy         0.481060D+02      0.712858D+01      0.793162D+01
   zx        -0.156734D+01     -0.232256D+00     -0.258420D+00
   zy         0.101810D-02      0.150867D-03      0.167862D-03
   zz         0.422462D+02      0.626024D+01      0.696545D+01

 ----------------------------------------------------------------------

 Dipole orientation:
     6          0.65157606         -2.39714915          2.01664838
     6         -0.59900996         -0.00008599          0.98862444
     6          0.65107818          2.39671995          2.01772496
     6         -0.52074130          0.00080614         -1.78381520
     7         -0.42053625         -0.00018866         -3.94797984
     1         -0.25781216         -4.09000043          1.28170128
     1          0.51876658         -2.41254860          4.07183824
     1          2.64230837         -2.44566251          1.48891384
     1         -2.59506748         -0.00042763          1.51725917
     1          2.64182053          2.44586911          1.49008806
     1         -0.25862639          4.08972089          1.28351897
     1          0.51814952          2.41107375          4.07291343

 Electric dipole moment (dipole orientation):
 (Debye = 10**-18 statcoulomb cm , SI units = C m)
                  (au)            (Debye)         (10**-30 SI)
   Tot        0.162651D+01      0.413418D+01      0.137901D+02
   x          0.000000D+00      0.000000D+00      0.000000D+00
   y          0.000000D+00      0.000000D+00      0.000000D+00
   z          0.162651D+01      0.413418D+01      0.137901D+02

 Dipole polarizability, Alpha (dipole orientation).
 (esu units = cm**3 , SI units = C**2 m**2 J**-1)
 Alpha(0;0):
               (au)            (10**-24 esu)      (10**-40 SI)
   iso        0.503302D+02      0.745816D+01      0.829833D+01
   aniso      0.164986D+02      0.244483D+01      0.272025D+01
   xx         0.422459D+02      0.626019D+01      0.696540D+01
   yx        -0.948089D-03     -0.140492D-03     -0.156319D-03
   yy         0.481060D+02      0.712858D+01      0.793162D+01
   zx         0.156553D+01      0.231987D+00      0.258121D+00
   zy         0.327053D-02      0.484643D-03      0.539238D-03
   zz         0.606386D+02      0.898572D+01      0.999796D+01

 ----------------------------------------------------------------------
 Unable to Open any file for archive entry.
 1\1\GINC-NODE12\Freq\RM062X\def2TZVP\C4H7N1\SVSS\20-Jun-2022\0\\#N Geo
 m=AllCheck Guess=TCheck SCRF=Check GenChk RM062X/def2TZVP Freq\\conver
 ted from /home/svss/projects/Project-Philicity/GS/hydrocarbon/set-1/GS
 /mol_16_hc/mol_16_hc_cregen_best.xyz\\0,1\C,1.1100192646,1.2684370241,
 0.1605790987\C,0.4625028657,-0.00003566,-0.4003282994\C,1.1103168437,-
 1.2683693157,0.1604841031\C,-0.9768231698,-0.0003535695,-0.1131464934\
 N,-2.0968849994,0.0002950007,0.1314288755\H,0.6458958516,2.1642535597,
 -0.248602047\H,2.170336533,1.2764683384,-0.0913224877\H,1.0116129652,1
 .2942291247,1.245962111\H,0.5609078205,0.0000248976,-1.4885719229\H,1.
 0119578959,-1.2942579976,1.2458689818\H,0.6463966967,-2.1642686518,-0.
 2487440086\H,2.1706214323,-1.2760827505,-0.0914779113\\Version=AS64L-G
 16RevC.01\State=1-A\HF=-211.3615882\RMSD=8.565e-10\RMSF=3.353e-05\Zero
 Point=0.1033074\Thermal=0.1092278\ETot=-211.2523604\HTot=-211.2514162\
 GTot=-211.2869465\Dipole=1.6034167,-0.000167,-0.2731176\DipoleDeriv=0.
 0160931,0.0243424,0.0019615,0.0655215,0.0298916,-0.0152102,0.030547,0.
 0091259,0.0648491,0.1584127,0.0000337,0.0181309,-0.0001691,0.1782372,0
 .0000225,-0.0031236,-0.0000036,0.1619969,0.0162174,-0.024347,0.0019531
 ,-0.0654562,0.0298436,0.0152154,0.0304796,-0.0091055,0.0648634,0.21039
 27,0.0002444,-0.019334,0.0003748,-0.0205632,-0.0000525,-0.0599754,-0.0
 000264,0.045493,-0.3780851,-0.000285,-0.0300313,-0.0001589,-0.3077028,
 0.0000247,0.0136274,0.0000407,-0.3161545,0.0449924,0.0604586,-0.041139
 ,0.0279274,-0.0695115,0.0277343,-0.0341745,0.0484869,0.0455086,-0.1164
 1,-0.0264115,0.0311487,-0.0021372,0.0510722,-0.0196162,0.0357561,-0.01
 62484,0.0598686,0.0658695,-0.0176102,0.029873,-0.0199335,0.0462496,0.0
 329441,-0.0066256,-0.0226502,-0.0876165,-0.011898,0.0000011,-0.0124454
 ,-0.0000255,0.034677,-0.0000028,-0.0015074,-0.0000077,-0.0565412,0.065
 8592,0.0176086,0.0298774,0.019936,0.0462638,-0.0329316,-0.006627,0.022
 6592,-0.0876241,0.0450122,-0.0604409,-0.0411389,-0.0279205,-0.0695359,
 -0.0277539,-0.0341688,-0.0485114,0.0455003,-0.1164561,0.0264056,0.0311
 441,0.0020412,0.0510784,0.0196262,0.0357922,0.0162403,0.0598564\Polar=
 60.6383038,-0.0043116,48.10605,-1.5673428,0.0010181,42.246179\Quadrupo
 le=-4.671278,2.4167373,2.2545406,0.0011919,0.4359432,0.0000055\PG=C01 
 [X(C4H7N1)]\NImag=0\\0.56804146,-0.04587348,0.51397328,-0.01850117,-0.
 03788493,0.56822309,-0.09479688,-0.03491646,-0.01787711,0.50118645,-0.
 04200220,-0.15251552,-0.03764331,-0.00001281,0.45028227,-0.01973882,-0
 .03582792,-0.09548794,-0.01908946,-0.00001099,0.57520333,0.00793991,-0
 .01141348,0.00568936,-0.09483471,0.04203475,-0.01975153,0.56804146,0.0
 1142385,-0.03262828,0.01053141,0.03494929,-0.15252564,0.03582373,0.045
 87213,0.51401653,0.00569599,-0.01053260,0.00534742,-0.01789124,0.03764
 035,-0.09548576,-0.01849954,0.03786976,0.56823841,-0.02731053,-0.01242
 173,-0.00005307,-0.24385676,-0.00005801,0.03768580,-0.02731851,0.01242
 408,-0.00005555,1.56178288,-0.03383425,-0.00168435,0.00738005,0.000000
 46,-0.06869742,0.00000480,0.03384319,-0.00167356,-0.00738100,-0.000648
 48,0.12160752,-0.01314508,0.00274977,0.00311604,0.03820190,0.00001533,
 -0.08312757,-0.01315183,-0.00275259,0.00311827,-0.31036528,0.00013179,
 0.18141419,0.00018178,0.00431503,0.00226046,-0.00075202,0.00003544,0.0
 0591396,0.00016926,-0.00431476,0.00226349,-1.25810085,0.00063809,0.264
 35195,1.26182994,0.00378229,-0.00071124,-0.00140138,-0.00002296,0.0187
 7442,0.00000027,-0.00378580,-0.00071046,0.00140218,0.00070080,-0.03938
 618,-0.00015035,-0.00067558,0.01870123,0.00205813,-0.00172237,-0.00084
 134,0.00401921,-0.00001113,0.01863314,0.00206360,0.00172414,-0.0008425
 7,0.26578955,-0.00013758,-0.09677069,-0.27071708,0.00014782,0.07768858
 ,-0.10017127,0.09942917,-0.04611867,0.00551102,-0.01391165,0.00711567,
 -0.00139998,-0.00216317,-0.00132405,0.00145991,-0.00062168,0.00064797,
 -0.00010902,0.00034116,-0.00012268,0.10420798,0.09653018,-0.23027001,0
 .08565828,0.01133037,-0.02084583,0.01059766,-0.00366817,-0.00365366,-0
 .00311377,0.00143739,0.00004219,0.00028676,-0.00059591,0.00033187,0.00
 002994,-0.10433854,0.25143228,-0.04597229,0.08747768,-0.08855004,0.006
 78777,-0.01177642,0.00450844,-0.00137874,-0.00186310,-0.00079906,0.000
 30066,0.00041475,0.00029744,-0.00001053,-0.00010643,-0.00014482,0.0509
 4177,-0.09223172,0.09137089,-0.30465884,0.00025658,0.06300002,-0.01368
 979,0.00025085,0.00310653,0.00069005,0.00112076,0.00025717,-0.00069806
 ,-0.00246924,-0.00154124,0.00003709,0.00007219,0.00016030,-0.01163320,
 -0.00068501,0.00336525,0.33004941,0.00277820,-0.04684298,0.00011038,-0
 .02753481,-0.00236790,0.00671248,-0.00093043,0.00179460,0.00043021,-0.
 00204979,-0.00521682,-0.00257061,-0.00103770,0.00105597,0.00070537,0.0
 2533098,0.00141360,-0.00786987,0.00150407,0.05041259,0.06422085,0.0006
 2435,-0.06345280,-0.01356577,-0.00091444,0.00200137,0.00014214,0.00067
 362,0.00000906,-0.00097522,-0.00293880,-0.00045559,-0.00066916,0.00055
 862,0.00049909,-0.01284645,-0.00107685,0.00256431,-0.06810864,0.002151
 91,0.06389114,-0.05025313,0.00110326,0.02787391,-0.00018477,-0.0013382
 9,-0.01624410,-0.00004342,0.00088497,0.00034736,0.00155577,0.00052287,
 -0.00155400,-0.00017753,0.00012802,0.00055703,0.00086560,-0.00108894,-
 0.01455025,-0.00122038,0.00037878,0.03169334,0.05012033,0.00075350,-0.
 04693477,-0.00125054,0.00209432,-0.00281282,-0.02932730,0.00015525,0.0
 0208718,-0.00121208,0.00167613,0.00082559,-0.00035117,-0.00037815,-0.0
 0005262,0.00031396,-0.00389578,0.00149685,0.02650717,0.00027036,-0.001
 18228,-0.00011766,0.00208649,0.05122342,0.02619651,-0.00354010,-0.3170
 5136,0.00041367,-0.00081973,-0.01235225,0.00024047,0.00078581,0.000900
 72,0.00064107,0.00007484,-0.00000537,-0.00047107,0.00011130,0.00023569
 ,0.00159648,-0.00057882,-0.01063554,0.00006542,0.00022803,-0.00552419,
 -0.02742488,0.00620825,0.34296861,0.00178215,-0.00063526,-0.01555285,-
 0.05020992,-0.00000284,0.02702520,0.00178306,0.00063637,-0.01556492,-0
 .00982880,-0.00000447,0.03900399,-0.00282747,0.00000140,-0.00440315,0.
 00030288,0.00040474,0.00066017,0.00029070,0.00070301,-0.00011836,-0.00
 077084,-0.00269161,-0.00141777,0.05965637,0.00199816,-0.00261499,-0.02
 939549,-0.00000402,-0.04327325,0.00001284,-0.00199752,-0.00261792,0.02
 939266,-0.00000097,-0.00146689,0.00000572,0.00000009,0.00066418,-0.000
 00003,0.00080003,0.00080772,0.00036333,0.00027589,0.00125869,0.0008500
 3,-0.00278409,-0.00444658,-0.00173165,0.00000411,0.05406828,0.00018209
 ,-0.00174684,-0.01141408,0.02536879,0.00001268,-0.30805409,0.00018176,
 0.00174794,-0.01141108,0.00706576,0.00000094,-0.00742378,-0.00177007,0
 .00000095,0.00095286,0.00021836,-0.00014640,0.00049917,-0.00023465,0.0
 0030425,0.00041722,-0.00111998,-0.00186207,0.00083539,-0.02875579,-0.0
 0001482,0.33384593,-0.00004302,-0.00088568,0.00034709,-0.00018377,0.00
 133868,-0.01625234,-0.05025186,-0.00110529,0.02786362,0.00155502,-0.00
 052301,-0.00155404,-0.00017741,-0.00012742,0.00055664,-0.00014942,-0.0
 0009073,-0.00004996,-0.00002776,0.00006492,0.00016093,0.00028560,-0.00
 008107,0.00031086,-0.00077251,0.00278501,-0.00111998,0.05011970,-0.000
 15613,0.00208715,0.00121216,-0.00209356,-0.00281368,0.02932475,-0.0007
 5656,-0.04693604,0.00127454,-0.00167489,0.00082503,0.00035050,0.000377
 73,-0.00005328,-0.00031353,0.00008799,0.00023360,-0.00034495,-0.000098
 67,-0.00009972,-0.00005117,0.00008130,-0.00033786,-0.00069500,0.002693
 28,-0.00444532,0.00186125,-0.00208468,0.05122384,0.00024064,-0.0007859
 9,0.00090095,0.00041368,0.00081993,-0.01234946,0.02618549,0.00356421,-
 0.31705292,0.00064067,-0.00007428,-0.00000574,-0.00047112,-0.00011102,
 0.00023566,-0.00008787,-0.00004621,0.00036040,-0.00006293,0.00008908,-
 0.00004007,0.00031069,0.00069524,0.00030800,-0.00141841,0.00173047,0.0
 0083594,-0.02741188,-0.00623386,0.34296926,-0.00140168,0.00216328,-0.0
 0132506,0.00551305,0.01391908,0.00712021,-0.10012641,-0.09939795,-0.04
 610401,0.00145778,0.00062196,0.00064862,-0.00010893,-0.00034023,-0.000
 12285,0.00077325,0.00081441,0.00011039,0.00034229,0.00024481,-0.000130
 68,-0.00014940,-0.00008811,-0.00008787,0.00030323,-0.00080023,0.000218
 20,0.00086376,0.00389428,0.00159601,0.10415939,0.00366949,-0.00365257,
 0.00311305,-0.01132695,-0.02084439,-0.01059785,-0.09649849,-0.23030780
 ,-0.08567719,-0.00143427,0.00004196,-0.00028712,0.00059544,0.00033049,
 -0.00002979,-0.00081383,-0.00127248,-0.00070889,0.00004986,0.00028404,
 0.00008765,0.00009060,0.00023355,0.00004610,-0.00040529,0.00080746,0.0
 0014654,0.00108964,0.00149939,0.00057975,0.10430163,0.25147325,-0.0013
 7915,0.00186218,-0.00079863,0.00678443,0.01177638,0.00450833,-0.045956
 12,-0.08749740,-0.08855957,0.00029972,-0.00041509,0.00029797,-0.000010
 07,0.00010678,-0.00014492,0.00011015,0.00070873,0.00067255,-0.00020418
 ,-0.00013848,-0.00014378,-0.00005004,0.00034500,0.00036046,0.00066040,
 -0.00036311,0.00049910,-0.01454381,-0.02650990,-0.01063697,0.05092542,
 0.09225348,0.09138050,0.00069004,-0.00112124,0.00025709,-0.01370189,-0
 .00025300,0.00310888,-0.30464886,-0.00033029,0.06301167,-0.00069786,0.
 00247455,-0.00154295,0.00003516,-0.00007386,0.00016128,0.00034225,-0.0
 0004978,-0.00020425,0.00051849,0.00054798,0.00019701,-0.00002782,0.000
 09867,-0.00006288,0.00029115,-0.00027647,-0.00023449,-0.00121833,-0.00
 027008,0.00006504,-0.01162632,0.00068216,0.00336325,0.33004398,0.00093
 039,0.00179428,-0.00042967,0.02753715,-0.00236024,-0.00671248,-0.00285
 487,-0.04684495,-0.00009306,0.00204973,-0.00521709,0.00257197,0.001040
 27,0.00105564,-0.00070680,-0.00024466,0.00028388,0.00013845,-0.0005476
 3,-0.00050978,0.00015274,-0.00006497,-0.00009966,-0.00008905,-0.000703
 45,0.00125861,-0.00030441,-0.00038037,-0.00118310,-0.00022732,-0.02533
 294,0.00140710,0.00787143,-0.00142864,0.05041531,0.00014230,-0.0006732
 4,0.00000869,-0.01356587,0.00091134,0.00200246,0.06423495,-0.00060753,
 -0.06346293,-0.00097410,0.00293959,-0.00045519,-0.00067077,-0.00055872
 ,0.00049930,-0.00013068,-0.00008760,-0.00014374,0.00019693,-0.00015277
 ,0.00023427,0.00016092,0.00005121,-0.00004014,-0.00011851,-0.00084994,
 0.00041742,0.03169287,0.00012520,-0.00552505,-0.01284839,0.00107428,0.
 00256496,-0.06811966,-0.00217181,0.06389993\\0.00004500,0.00005917,0.0
 0003956,-0.00001174,0.00003061,-0.00008548,0.00001156,-0.00005619,0.00
 004782,0.00005694,-0.00008159,-0.00003145,-0.00005729,0.00003362,0.000
 02342,-0.00000446,-0.00000649,0.00000457,-0.00000879,-0.00002083,-0.00
 001311,-0.00000425,0.00000013,-0.00000199,-0.00000332,0.00000215,0.000
 03255,-0.00000488,-0.00000111,-0.00000193,-0.00000717,0.00000852,0.000
 00509,-0.00001160,0.00003200,-0.00001904\\\@
 The archive entry for this job was punched.


 NO HUMAN INVESTIGATION CAN BECOME REAL SCIENCE
 WITHOUT GOING THROUGH MATHEMATICAL PEOPLE.
 -- LEONARDO DA VINCI, IN "PENSIERI" CA. 1492
 Job cpu time:       0 days  0 hours 18 minutes 31.0 seconds.
 Elapsed time:       0 days  0 hours  2 minutes 24.6 seconds.
 File lengths (MBytes):  RWF=    116 Int=      0 D2E=      0 Chk=      5 Scr=      2
 Normal termination of Gaussian 16 at Mon Jun 20 17:44:53 2022.
