 Entering Gaussian System, Link 0=/opt/apps/Gaussian/G16C/g16/g16
 Input=/home/svss/projects/Project-Philicity/GS/hydrocarbon/set-1/GS/mol_26_hc/mol_26_hc.com
 Output=/home/svss/projects/Project-Philicity/GS/hydrocarbon/set-1/GS/mol_26_hc/mol_26_hc.log
 Initial command:
 /opt/apps/Gaussian/G16C/g16/l1.exe "/home/svss/projects/Project-Philicity/GS/hydrocarbon/set-1/Gau-250747.inp" -scrdir="/home/svss/projects/Project-Philicity/GS/hydrocarbon/set-1/"
 Entering Link 1 = /opt/apps/Gaussian/G16C/g16/l1.exe PID=    250748.
  
 Copyright (c) 1988-2019, Gaussian, Inc.  All Rights Reserved.
  
 This is part of the Gaussian(R) 16 program.  It is based on
 the Gaussian(R) 09 system (copyright 2009, Gaussian, Inc.),
 the Gaussian(R) 03 system (copyright 2003, Gaussian, Inc.),
 the Gaussian(R) 98 system (copyright 1998, Gaussian, Inc.),
 the Gaussian(R) 94 system (copyright 1995, Gaussian, Inc.),
 the Gaussian 92(TM) system (copyright 1992, Gaussian, Inc.),
 the Gaussian 90(TM) system (copyright 1990, Gaussian, Inc.),
 the Gaussian 88(TM) system (copyright 1988, Gaussian, Inc.),
 the Gaussian 86(TM) system (copyright 1986, Carnegie Mellon
 University), and the Gaussian 82(TM) system (copyright 1983,
 Carnegie Mellon University). Gaussian is a federally registered
 trademark of Gaussian, Inc.
  
 This software contains proprietary and confidential information,
 including trade secrets, belonging to Gaussian, Inc.
  
 This software is provided under written license and may be
 used, copied, transmitted, or stored only in accord with that
 written license.
  
 The following legend is applicable only to US Government
 contracts under FAR:
  
                    RESTRICTED RIGHTS LEGEND
  
 Use, reproduction and disclosure by the US Government is
 subject to restrictions as set forth in subparagraphs (a)
 and (c) of the Commercial Computer Software - Restricted
 Rights clause in FAR 52.227-19.
  
 Gaussian, Inc.
 340 Quinnipiac St., Bldg. 40, Wallingford CT 06492
  
  
 ---------------------------------------------------------------
 Warning -- This program may not be used in any manner that
 competes with the business of Gaussian, Inc. or will provide
 assistance to any competitor of Gaussian, Inc.  The licensee
 of this program is prohibited from giving any competitor of
 Gaussian, Inc. access to this program.  By using this program,
 the user acknowledges that Gaussian, Inc. is engaged in the
 business of creating and licensing software in the field of
 computational chemistry and represents and warrants to the
 licensee that it is not a competitor of Gaussian, Inc. and that
 it will not use this program in any manner prohibited above.
 ---------------------------------------------------------------
  

 Cite this work as:
 Gaussian 16, Revision C.01,
 M. J. Frisch, G. W. Trucks, H. B. Schlegel, G. E. Scuseria, 
 M. A. Robb, J. R. Cheeseman, G. Scalmani, V. Barone, 
 G. A. Petersson, H. Nakatsuji, X. Li, M. Caricato, A. V. Marenich, 
 J. Bloino, B. G. Janesko, R. Gomperts, B. Mennucci, H. P. Hratchian, 
 J. V. Ortiz, A. F. Izmaylov, J. L. Sonnenberg, D. Williams-Young, 
 F. Ding, F. Lipparini, F. Egidi, J. Goings, B. Peng, A. Petrone, 
 T. Henderson, D. Ranasinghe, V. G. Zakrzewski, J. Gao, N. Rega, 
 G. Zheng, W. Liang, M. Hada, M. Ehara, K. Toyota, R. Fukuda, 
 J. Hasegawa, M. Ishida, T. Nakajima, Y. Honda, O. Kitao, H. Nakai, 
 T. Vreven, K. Throssell, J. A. Montgomery, Jr., J. E. Peralta, 
 F. Ogliaro, M. J. Bearpark, J. J. Heyd, E. N. Brothers, K. N. Kudin, 
 V. N. Staroverov, T. A. Keith, R. Kobayashi, J. Normand, 
 K. Raghavachari, A. P. Rendell, J. C. Burant, S. S. Iyengar, 
 J. Tomasi, M. Cossi, J. M. Millam, M. Klene, C. Adamo, R. Cammi, 
 J. W. Ochterski, R. L. Martin, K. Morokuma, O. Farkas, 
 J. B. Foresman, and D. J. Fox, Gaussian, Inc., Wallingford CT, 2019.
 
 ******************************************
 Gaussian 16:  AS64L-G16RevC.01  3-Jul-2019
                20-Jun-2022 
 ******************************************
 %nproc=8
 Will use up to    8 processors via shared memory.
 %mem=96GB
 %chk=/home/svss/projects/Project-Philicity/GS/hydrocarbon/set-1/GS/mol_26_hc/mol
 _26_hc.chk
 -------------------------
 # opt freq M062X/def2tzvp
 -------------------------
 1/18=20,19=15,26=3,38=1/1,3;
 2/9=110,12=2,17=6,18=5,40=1/2;
 3/5=44,7=101,11=2,25=1,30=1,71=1,74=-55/1,2,3;
 4//1;
 5/5=2,38=5/2;
 6/7=2,8=2,9=2,10=2,28=1/1;
 7//1,2,3,16;
 1/18=20,19=15,26=3/3(2);
 2/9=110/2;
 99//99;
 2/9=110/2;
 3/5=44,7=101,11=2,25=1,30=1,71=1,74=-55/1,2,3;
 4/5=5,16=3,69=1/1;
 5/5=2,38=5/2;
 7//1,2,3,16;
 1/18=20,19=15,26=3/3(-5);
 2/9=110/2;
 6/7=2,8=2,9=2,10=2,19=2,28=1/1;
 99/9=1/99;
 ----------------------------------------------------------------------
 converted from /home/svss/projects/Project-Philicity/GS/hydrocarbon/se
 t-1/GS/mol_26_hc/mol_26_hc_cregen_best.xyz
 ----------------------------------------------------------------------
 Symbolic Z-matrix:
 Charge =  0 Multiplicity = 1
 C                    -1.7063   -0.37375   0.03435 
 C                    -0.5996    0.6581   -0.05506 
 S                     1.06244  -0.10066   0.04102 
 H                    -2.67488   0.12245   0.03397 
 H                    -1.66659  -1.05623  -0.81286 
 H                    -1.61162  -0.9535    0.94965 
 H                    -0.6345    1.34716   0.78806 
 H                    -0.65286   1.22801  -0.98275 
 H                     0.92467  -0.87437  -1.03396 
 

 GradGradGradGradGradGradGradGradGradGradGradGradGradGradGradGradGradGrad
 Berny optimization.
 Initialization pass.
                           ----------------------------
                           !    Initial Parameters    !
                           ! (Angstroms and Degrees)  !
 --------------------------                            --------------------------
 ! Name  Definition              Value          Derivative Info.                !
 --------------------------------------------------------------------------------
 ! R1    R(1,2)                  1.5157         estimate D2E/DX2                !
 ! R2    R(1,4)                  1.0883         estimate D2E/DX2                !
 ! R3    R(1,5)                  1.0886         estimate D2E/DX2                !
 ! R4    R(1,6)                  1.0876         estimate D2E/DX2                !
 ! R5    R(2,3)                  1.8296         estimate D2E/DX2                !
 ! R6    R(2,7)                  1.0894         estimate D2E/DX2                !
 ! R7    R(2,8)                  1.0901         estimate D2E/DX2                !
 ! R8    R(3,9)                  1.3316         estimate D2E/DX2                !
 ! A1    A(2,1,4)              109.8413         estimate D2E/DX2                !
 ! A2    A(2,1,5)              110.7466         estimate D2E/DX2                !
 ! A3    A(2,1,6)              110.4239         estimate D2E/DX2                !
 ! A4    A(4,1,5)              108.544          estimate D2E/DX2                !
 ! A5    A(4,1,6)              108.7126         estimate D2E/DX2                !
 ! A6    A(5,1,6)              108.5174         estimate D2E/DX2                !
 ! A7    A(1,2,3)              112.201          estimate D2E/DX2                !
 ! A8    A(1,2,7)              111.1942         estimate D2E/DX2                !
 ! A9    A(1,2,8)              111.7427         estimate D2E/DX2                !
 ! A10   A(3,2,7)              104.5229         estimate D2E/DX2                !
 ! A11   A(3,2,8)              107.8125         estimate D2E/DX2                !
 ! A12   A(7,2,8)              109.0491         estimate D2E/DX2                !
 ! A13   A(2,3,9)               96.0032         estimate D2E/DX2                !
 ! D1    D(4,1,2,3)            176.6008         estimate D2E/DX2                !
 ! D2    D(4,1,2,7)             59.9376         estimate D2E/DX2                !
 ! D3    D(4,1,2,8)            -62.17           estimate D2E/DX2                !
 ! D4    D(5,1,2,3)            -63.5161         estimate D2E/DX2                !
 ! D5    D(5,1,2,7)            179.8207         estimate D2E/DX2                !
 ! D6    D(5,1,2,8)             57.7132         estimate D2E/DX2                !
 ! D7    D(6,1,2,3)             56.7124         estimate D2E/DX2                !
 ! D8    D(6,1,2,7)            -59.9508         estimate D2E/DX2                !
 ! D9    D(6,1,2,8)            177.9416         estimate D2E/DX2                !
 ! D10   D(1,2,3,9)             59.814          estimate D2E/DX2                !
 ! D11   D(7,2,3,9)           -179.5829         estimate D2E/DX2                !
 ! D12   D(8,2,3,9)            -63.6474         estimate D2E/DX2                !
 --------------------------------------------------------------------------------
 Trust Radius=3.00D-01 FncErr=1.00D-07 GrdErr=1.00D-06 EigMax=2.50D+02 EigMin=1.00D-04
 Number of steps in this run=     43 maximum allowed number of steps=    100.
 GradGradGradGradGradGradGradGradGradGradGradGradGradGradGradGradGradGrad

                          Input orientation:                          
 ---------------------------------------------------------------------
 Center     Atomic      Atomic             Coordinates (Angstroms)
 Number     Number       Type             X           Y           Z
 ---------------------------------------------------------------------
      1          6           0       -1.706300   -0.373750    0.034350
      2          6           0       -0.599600    0.658100   -0.055060
      3         16           0        1.062440   -0.100660    0.041020
      4          1           0       -2.674880    0.122450    0.033970
      5          1           0       -1.666590   -1.056230   -0.812860
      6          1           0       -1.611620   -0.953500    0.949650
      7          1           0       -0.634500    1.347160    0.788060
      8          1           0       -0.652860    1.228010   -0.982750
      9          1           0        0.924670   -0.874370   -1.033960
 ---------------------------------------------------------------------
                    Distance matrix (angstroms):
                    1          2          3          4          5
     1  C    0.000000
     2  C    1.515748   0.000000
     3  S    2.782183   1.829570   0.000000
     4  H    1.088284   2.145142   3.743980   0.000000
     5  H    1.088632   2.156770   3.014934   1.767217   0.000000
     6  H    1.087588   2.151948   2.950177   1.768236   1.766357
     7  H    2.162953   1.089437   2.352415   2.496341   3.066666
     8  H    2.170222   1.090065   2.399109   2.518838   2.504848
     9  H    2.883385   2.372785   1.331612   3.884699   2.607026
                    6          7          8          9
     6  H    0.000000
     7  H    2.504778   0.000000
     8  H    3.067960   1.774909   0.000000
     9  H    3.220829   3.268939   2.628921   0.000000
 Stoichiometry    C2H6S
 Framework group  C1[X(C2H6S)]
 Deg. of freedom    21
 Full point group                 C1      NOp   1
 Largest Abelian subgroup         C1      NOp   1
 Largest concise Abelian subgroup C1      NOp   1
                         Standard orientation:                         
 ---------------------------------------------------------------------
 Center     Atomic      Atomic             Coordinates (Angstroms)
 Number     Number       Type             X           Y           Z
 ---------------------------------------------------------------------
      1          6           0        1.616175   -0.359144   -0.053333
      2          6           0        0.502580    0.659281    0.088826
      3         16           0       -1.153787   -0.099766   -0.077369
      4          1           0        2.581826    0.140722   -0.008464
      5          1           0        1.569917   -1.095417    0.747219
      6          1           0        1.536106   -0.878653   -1.005461
      7          1           0        0.543940    1.401830   -0.707279
      8          1           0        0.541137    1.167963    1.052153
      9          1           0       -1.024869   -0.941005    0.946783
 ---------------------------------------------------------------------
 Rotational constants (GHZ):          28.5050443           5.3750600           4.9047627
 Standard basis: def2TZVP (5D, 7F)
 There are   150 symmetry adapted cartesian basis functions of A   symmetry.
 There are   135 symmetry adapted basis functions of A   symmetry.
   135 basis functions,   219 primitive gaussians,   150 cartesian basis functions
    17 alpha electrons       17 beta electrons
       nuclear repulsion energy       107.6519623381 Hartrees.
 NAtoms=    9 NActive=    9 NUniq=    9 SFac= 1.00D+00 NAtFMM=   60 NAOKFM=F Big=F
 Integral buffers will be    131072 words long.
 Raffenetti 2 integral format.
 Two-electron integral symmetry is turned on.
 One-electron integrals computed using PRISM.
   1 Symmetry operations used in ECPInt.
 ECPInt:  NShTT=    1770 NPrTT=    5454 LenC2=    1765 LenP2D=    4695.
 LDataN:  DoStor=T MaxTD1= 6 Len=  172
 NBasis=   135 RedAO= T EigKep=  5.03D-04  NBF=   135
 NBsUse=   135 1.00D-06 EigRej= -1.00D+00 NBFU=   135
 ExpMin= 9.52D-02 ExpMax= 6.07D+04 ExpMxC= 2.07D+03 IAcc=3 IRadAn=         5 AccDes= 0.00D+00
 Harris functional with IExCor= 1009 and IRadAn=       5 diagonalized for initial guess.
 HarFok:  IExCor= 1009 AccDes= 0.00D+00 IRadAn=         5 IDoV= 1 UseB2=F ITyADJ=14
 ICtDFT=  3500011 ScaDFX=  1.000000  1.000000  1.000000  1.000000
 FoFCou: FMM=F IPFlag=           0 FMFlag=      100000 FMFlg1=           0
         NFxFlg=           0 DoJE=T BraDBF=F KetDBF=T FulRan=T
         wScrn=  0.000000 ICntrl=       500 IOpCl=  0 I1Cent=   200000004 NGrid=           0
         NMat0=    1 NMatS0=      1 NMatT0=    0 NMatD0=    1 NMtDS0=    0 NMtDT0=    0
 Petite list used in FoFCou.
 Keep R1 ints in memory in canonical form, NReq=49960238.
 Requested convergence on RMS density matrix=1.00D-08 within 128 cycles.
 Requested convergence on MAX density matrix=1.00D-06.
 Requested convergence on             energy=1.00D-06.
 No special actions if energy rises.
 Integral accuracy reduced to 1.0D-05 until final iterations.
 Initial convergence to 1.0D-05 achieved.  Increase integral accuracy.
 SCF Done:  E(RM062X) =  -477.990638924     A.U. after   13 cycles
            NFock= 13  Conv=0.93D-08     -V/T= 2.0019

 **********************************************************************

            Population analysis using the SCF Density.

 **********************************************************************

 Orbital symmetries:
       Occupied  (A) (A) (A) (A) (A) (A) (A) (A) (A) (A) (A) (A)
                 (A) (A) (A) (A) (A)
       Virtual   (A) (A) (A) (A) (A) (A) (A) (A) (A) (A) (A) (A)
                 (A) (A) (A) (A) (A) (A) (A) (A) (A) (A) (A) (A)
                 (A) (A) (A) (A) (A) (A) (A) (A) (A) (A) (A) (A)
                 (A) (A) (A) (A) (A) (A) (A) (A) (A) (A) (A) (A)
                 (A) (A) (A) (A) (A) (A) (A) (A) (A) (A) (A) (A)
                 (A) (A) (A) (A) (A) (A) (A) (A) (A) (A) (A) (A)
                 (A) (A) (A) (A) (A) (A) (A) (A) (A) (A) (A) (A)
                 (A) (A) (A) (A) (A) (A) (A) (A) (A) (A) (A) (A)
                 (A) (A) (A) (A) (A) (A) (A) (A) (A) (A) (A) (A)
                 (A) (A) (A) (A) (A) (A) (A) (A) (A) (A)
 The electronic state is 1-A.
 Alpha  occ. eigenvalues --  -89.88922 -10.56935 -10.53347  -8.24864  -6.16833
 Alpha  occ. eigenvalues --   -6.16635  -6.16310  -0.89900  -0.79087  -0.68963
 Alpha  occ. eigenvalues --   -0.54249  -0.50198  -0.47060  -0.43936  -0.41926
 Alpha  occ. eigenvalues --   -0.37576  -0.29190
 Alpha virt. eigenvalues --    0.04708   0.08984   0.09555   0.11701   0.12555
 Alpha virt. eigenvalues --    0.14489   0.15610   0.18766   0.22524   0.24469
 Alpha virt. eigenvalues --    0.25244   0.26389   0.29444   0.30810   0.31029
 Alpha virt. eigenvalues --    0.34251   0.38947   0.41842   0.42979   0.45808
 Alpha virt. eigenvalues --    0.46794   0.47809   0.49105   0.49876   0.53537
 Alpha virt. eigenvalues --    0.55445   0.56834   0.60044   0.63495   0.73112
 Alpha virt. eigenvalues --    0.80723   0.83531   0.85947   0.88895   0.93390
 Alpha virt. eigenvalues --    0.98664   1.05632   1.08043   1.10009   1.12754
 Alpha virt. eigenvalues --    1.15180   1.42856   1.43438   1.50068   1.50271
 Alpha virt. eigenvalues --    1.53171   1.54483   1.55092   1.57248   1.58895
 Alpha virt. eigenvalues --    1.59559   1.61301   1.62160   1.63362   1.66057
 Alpha virt. eigenvalues --    1.70893   1.73966   1.74545   1.78738   1.83653
 Alpha virt. eigenvalues --    1.84732   1.86442   1.88198   1.90201   1.94338
 Alpha virt. eigenvalues --    1.99320   2.06358   2.09601   2.20856   2.21781
 Alpha virt. eigenvalues --    2.24994   2.33204   2.34371   2.36399   2.40705
 Alpha virt. eigenvalues --    2.44296   2.46517   2.56154   2.57387   2.59387
 Alpha virt. eigenvalues --    2.61720   2.64804   2.67667   2.76551   2.77940
 Alpha virt. eigenvalues --    2.81626   2.91186   2.96243   3.04907   3.07466
 Alpha virt. eigenvalues --    3.12504   3.16135   3.18496   3.25468   3.31052
 Alpha virt. eigenvalues --    3.32112   3.34789   3.45957   3.47720   3.49436
 Alpha virt. eigenvalues --    3.62967   3.73540   3.76345   3.87236   3.91569
 Alpha virt. eigenvalues --    3.95460   4.24095   4.27386   4.38482   4.40687
 Alpha virt. eigenvalues --    4.51370   4.68439   8.95949   9.03510   9.33460
 Alpha virt. eigenvalues --   19.23500  22.32502  22.44576
          Condensed to atoms (all electrons):
               1          2          3          4          5          6
     1  C    5.067731   0.274149  -0.068378   0.388912   0.411021   0.412445
     2  C    0.274149   4.993454   0.300643  -0.038350  -0.039748  -0.039943
     3  S   -0.068378   0.300643  15.713569   0.011175  -0.002502   0.002495
     4  H    0.388912  -0.038350   0.011175   0.556493  -0.023570  -0.021813
     5  H    0.411021  -0.039748  -0.002502  -0.023570   0.547232  -0.029884
     6  H    0.412445  -0.039943   0.002495  -0.021813  -0.029884   0.527633
     7  H   -0.037486   0.401644  -0.033995  -0.005849   0.007901  -0.006530
     8  H   -0.046920   0.422583  -0.052209  -0.000675  -0.007450   0.008535
     9  H   -0.006111  -0.034548   0.341171  -0.000115   0.003975  -0.000943
               7          8          9
     1  C   -0.037486  -0.046920  -0.006111
     2  C    0.401644   0.422583  -0.034548
     3  S   -0.033995  -0.052209   0.341171
     4  H   -0.005849  -0.000675  -0.000115
     5  H    0.007901  -0.007450   0.003975
     6  H   -0.006530   0.008535  -0.000943
     7  H    0.553492  -0.030370   0.005555
     8  H   -0.030370   0.560828  -0.004832
     9  H    0.005555  -0.004832   0.559600
 Mulliken charges:
               1
     1  C   -0.395363
     2  C   -0.239883
     3  S   -0.211969
     4  H    0.133792
     5  H    0.133025
     6  H    0.148005
     7  H    0.145637
     8  H    0.150508
     9  H    0.136247
 Sum of Mulliken charges =  -0.00000
 Mulliken charges with hydrogens summed into heavy atoms:
               1
     1  C    0.019460
     2  C    0.056262
     3  S   -0.075722
 Electronic spatial extent (au):  <R**2>=            296.3966
 Charge=             -0.0000 electrons
 Dipole moment (field-independent basis, Debye):
    X=              1.5620    Y=              0.1228    Z=              0.6665  Tot=              1.7027
 Quadrupole moment (field-independent basis, Debye-Ang):
   XX=            -29.3754   YY=            -27.1878   ZZ=            -27.0236
   XY=              1.3111   XZ=             -0.6060   YZ=             -1.7261
 Traceless Quadrupole moment (field-independent basis, Debye-Ang):
   XX=             -1.5131   YY=              0.6745   ZZ=              0.8386
   XY=              1.3111   XZ=             -0.6060   YZ=             -1.7261
 Octapole moment (field-independent basis, Debye-Ang**2):
  XXX=              2.3915  YYY=              0.6428  ZZZ=              1.1294  XYY=             -0.0990
  XXY=             -1.6136  XXZ=              0.2410  XZZ=              0.2795  YZZ=              0.1533
  YYZ=              0.8947  XYZ=              1.8055
 Hexadecapole moment (field-independent basis, Debye-Ang**3):
 XXXX=           -292.3177 YYYY=            -80.5268 ZZZZ=            -50.6871 XXXY=              8.7787
 XXXZ=              0.1661 YYYX=              1.9988 YYYZ=             -3.5040 ZZZX=             -1.1035
 ZZZY=             -1.9036 XXYY=            -61.9387 XXZZ=            -58.1736 YYZZ=            -19.3880
 XXYZ=             -2.5953 YYXZ=             -0.9650 ZZXY=              0.2427
 N-N= 1.076519623381D+02 E-N=-1.347048099996D+03  KE= 4.770909316669D+02
   1 Symmetry operations used in ECPInt.
 ECPInt:  NShTT=    1770 NPrTT=    5454 LenC2=    1765 LenP2D=    4695.
 LDataN:  DoStor=T MaxTD1= 7 Len=  274
 Calling FoFJK, ICntrl=      2127 FMM=F ISym2X=0 I1Cent= 0 IOpClX= 0 NMat=1 NMatS=1 NMatT=0.
 ***** Axes restored to original set *****
 -------------------------------------------------------------------
 Center     Atomic                   Forces (Hartrees/Bohr)
 Number     Number              X              Y              Z
 -------------------------------------------------------------------
      1        6          -0.000110394    0.002755532    0.000841300
      2        6           0.006762562   -0.005024598   -0.002102219
      3       16          -0.001478250    0.004244336    0.003280258
      4        1          -0.002935834   -0.000188094   -0.000504353
      5        1          -0.000378222   -0.000954935   -0.000540408
      6        1          -0.000193120   -0.001148290    0.000600329
      7        1           0.000012805    0.000941844   -0.001166799
      8        1          -0.001365209    0.001353653    0.002381474
      9        1          -0.000314337   -0.001979448   -0.002789582
 -------------------------------------------------------------------
 Cartesian Forces:  Max     0.006762562 RMS     0.002357478

 GradGradGradGradGradGradGradGradGradGradGradGradGradGradGradGradGradGrad
 Berny optimization.
 FormGI is forming the generalized inverse of G from B-inverse, IUseBI=4.
 Internal  Forces:  Max     0.003426481 RMS     0.001400729
 Search for a local minimum.
 Step number   1 out of a maximum of   43
 All quantities printed in internal units (Hartrees-Bohrs-Radians)
 Mixed Optimization -- RFO/linear search
 Second derivative matrix not updated -- first step.
 ITU=  0
     Eigenvalues ---    0.00230   0.00558   0.04796   0.05575   0.05731
     Eigenvalues ---    0.05812   0.11551   0.13820   0.16000   0.16000
     Eigenvalues ---    0.16000   0.16000   0.22058   0.23919   0.27105
     Eigenvalues ---    0.30780   0.34805   0.34878   0.34971   0.35012
     Eigenvalues ---    0.35093
 RFO step:  Lambda=-4.32860489D-04 EMin= 2.30000000D-03
 Linear search not attempted -- first point.
 Iteration  1 RMS(Cart)=  0.01541157 RMS(Int)=  0.00014398
 Iteration  2 RMS(Cart)=  0.00015254 RMS(Int)=  0.00008186
 Iteration  3 RMS(Cart)=  0.00000001 RMS(Int)=  0.00008186
 Variable       Old X    -DE/DX   Delta X   Delta X   Delta X     New X
                                 (Linear)    (Quad)   (Total)
    R1        2.86435   0.00235   0.00000   0.00763   0.00763   2.87198
    R2        2.05656   0.00253   0.00000   0.00721   0.00721   2.06377
    R3        2.05722   0.00101   0.00000   0.00288   0.00288   2.06010
    R4        2.05524   0.00110   0.00000   0.00313   0.00313   2.05837
    R5        3.45739  -0.00254   0.00000  -0.01059  -0.01059   3.44679
    R6        2.05874  -0.00031   0.00000  -0.00088  -0.00088   2.05786
    R7        2.05993  -0.00125   0.00000  -0.00359  -0.00359   2.05633
    R8        2.51638   0.00343   0.00000   0.01262   0.01262   2.52900
    A1        1.91709   0.00198   0.00000   0.01397   0.01393   1.93102
    A2        1.93289   0.00019   0.00000  -0.00075  -0.00075   1.93215
    A3        1.92726   0.00048   0.00000   0.00331   0.00327   1.93053
    A4        1.89445  -0.00121   0.00000  -0.00822  -0.00823   1.88622
    A5        1.89739  -0.00082   0.00000  -0.00127  -0.00135   1.89604
    A6        1.89399  -0.00071   0.00000  -0.00749  -0.00749   1.88650
    A7        1.95828   0.00329   0.00000   0.02075   0.02061   1.97889
    A8        1.94070  -0.00020   0.00000  -0.00488  -0.00493   1.93578
    A9        1.95028  -0.00083   0.00000  -0.00166  -0.00195   1.94832
   A10        1.82427  -0.00135   0.00000  -0.00569  -0.00564   1.81863
   A11        1.88168   0.00001   0.00000   0.01425   0.01407   1.89575
   A12        1.90327  -0.00102   0.00000  -0.02354  -0.02361   1.87966
   A13        1.67557   0.00009   0.00000   0.00056   0.00056   1.67613
    D1        3.08226  -0.00021   0.00000   0.00548   0.00546   3.08773
    D2        1.04611  -0.00048   0.00000   0.00254   0.00260   1.04871
    D3       -1.08507   0.00155   0.00000   0.03754   0.03755  -1.04752
    D4       -1.10856  -0.00031   0.00000   0.00378   0.00375  -1.10482
    D5        3.13846  -0.00059   0.00000   0.00085   0.00089   3.13935
    D6        1.00729   0.00145   0.00000   0.03584   0.03584   1.04312
    D7        0.98982  -0.00076   0.00000  -0.00392  -0.00398   0.98584
    D8       -1.04634  -0.00103   0.00000  -0.00686  -0.00684  -1.05318
    D9        3.10567   0.00100   0.00000   0.02814   0.02811   3.13378
   D10        1.04395   0.00017   0.00000   0.01689   0.01703   1.06098
   D11       -3.13431   0.00086   0.00000   0.01867   0.01870  -3.11561
   D12       -1.11086  -0.00095   0.00000  -0.00460  -0.00478  -1.11564
         Item               Value     Threshold  Converged?
 Maximum Force            0.003426     0.000450     NO 
 RMS     Force            0.001401     0.000300     NO 
 Maximum Displacement     0.043598     0.001800     NO 
 RMS     Displacement     0.015364     0.001200     NO 
 Predicted change in Energy=-2.186328D-04
 GradGradGradGradGradGradGradGradGradGradGradGradGradGradGradGradGradGrad

                          Input orientation:                          
 ---------------------------------------------------------------------
 Center     Atomic      Atomic             Coordinates (Angstroms)
 Number     Number       Type             X           Y           Z
 ---------------------------------------------------------------------
      1          6           0       -1.713840   -0.372102    0.037434
      2          6           0       -0.591017    0.647672   -0.057825
      3         16           0        1.071843   -0.095082    0.042451
      4          1           0       -2.686558    0.124284    0.027486
      5          1           0       -1.678582   -1.063938   -0.804327
      6          1           0       -1.628339   -0.951926    0.955554
      7          1           0       -0.624425    1.342025    0.780396
      8          1           0       -0.656061    1.231526   -0.973787
      9          1           0        0.947741   -0.865249   -1.044961
 ---------------------------------------------------------------------
                    Distance matrix (angstroms):
                    1          2          3          4          5
     1  C    0.000000
     2  C    1.519784   0.000000
     3  S    2.799427   1.823964   0.000000
     4  H    1.092098   2.161598   3.764827   0.000000
     5  H    1.090156   2.160942   3.036536   1.766295   0.000000
     6  H    1.089243   2.159094   2.976394   1.771825   1.764157
     7  H    2.162649   1.088971   2.342470   2.510411   3.067777
     8  H    2.170964   1.088165   2.403806   2.520209   2.518615
     9  H    2.915267   2.373003   1.338291   3.916306   2.644798
                    6          7          8          9
     6  H    0.000000
     7  H    2.510127   0.000000
     8  H    3.071668   1.757945   0.000000
     9  H    3.262784   3.267368   2.640779   0.000000
 Stoichiometry    C2H6S
 Framework group  C1[X(C2H6S)]
 Deg. of freedom    21
 Full point group                 C1      NOp   1
 Largest Abelian subgroup         C1      NOp   1
 Largest concise Abelian subgroup C1      NOp   1
                         Standard orientation:                         
 ---------------------------------------------------------------------
 Center     Atomic      Atomic             Coordinates (Angstroms)
 Number     Number       Type             X           Y           Z
 ---------------------------------------------------------------------
      1          6           0        1.629589   -0.351690   -0.053391
      2          6           0        0.495504    0.649847    0.089857
      3         16           0       -1.158434   -0.100503   -0.078391
      4          1           0        2.597090    0.152040    0.000248
      5          1           0        1.590530   -1.094721    0.743363
      6          1           0        1.561594   -0.874184   -1.006716
      7          1           0        0.532643    1.395155   -0.703235
      8          1           0        0.543033    1.176309    1.041004
      9          1           0       -1.040502   -0.935491    0.960796
 ---------------------------------------------------------------------
 Rotational constants (GHZ):          28.8656403           5.3172327           4.8669533
 Standard basis: def2TZVP (5D, 7F)
 There are   150 symmetry adapted cartesian basis functions of A   symmetry.
 There are   135 symmetry adapted basis functions of A   symmetry.
   135 basis functions,   219 primitive gaussians,   150 cartesian basis functions
    17 alpha electrons       17 beta electrons
       nuclear repulsion energy       107.4591905305 Hartrees.
 NAtoms=    9 NActive=    9 NUniq=    9 SFac= 1.00D+00 NAtFMM=   60 NAOKFM=F Big=F
 Integral buffers will be    131072 words long.
 Raffenetti 2 integral format.
 Two-electron integral symmetry is turned on.
 One-electron integrals computed using PRISM.
   1 Symmetry operations used in ECPInt.
 ECPInt:  NShTT=    1770 NPrTT=    5454 LenC2=    1765 LenP2D=    4695.
 LDataN:  DoStor=T MaxTD1= 6 Len=  172
 NBasis=   135 RedAO= T EigKep=  5.14D-04  NBF=   135
 NBsUse=   135 1.00D-06 EigRej= -1.00D+00 NBFU=   135
 Initial guess from the checkpoint file:  "/home/svss/projects/Project-Philicity/GS/hydrocarbon/set-1/GS/mol_26_hc/mol_26_hc.chk"
 B after Tr=     0.000000    0.000000    0.000000
         Rot=    0.999999    0.000586    0.000313   -0.001469 Ang=   0.18 deg.
 ExpMin= 9.52D-02 ExpMax= 6.07D+04 ExpMxC= 2.07D+03 IAcc=3 IRadAn=         5 AccDes= 0.00D+00
 Harris functional with IExCor= 1009 and IRadAn=       5 diagonalized for initial guess.
 HarFok:  IExCor= 1009 AccDes= 0.00D+00 IRadAn=         5 IDoV= 1 UseB2=F ITyADJ=14
 ICtDFT=  3500011 ScaDFX=  1.000000  1.000000  1.000000  1.000000
 FoFCou: FMM=F IPFlag=           0 FMFlag=      100000 FMFlg1=           0
         NFxFlg=           0 DoJE=T BraDBF=F KetDBF=T FulRan=T
         wScrn=  0.000000 ICntrl=       500 IOpCl=  0 I1Cent=   200000004 NGrid=           0
         NMat0=    1 NMatS0=      1 NMatT0=    0 NMatD0=    1 NMtDS0=    0 NMtDT0=    0
 Petite list used in FoFCou.
 Keep R1 ints in memory in canonical form, NReq=49960238.
 Requested convergence on RMS density matrix=1.00D-08 within 128 cycles.
 Requested convergence on MAX density matrix=1.00D-06.
 Requested convergence on             energy=1.00D-06.
 No special actions if energy rises.
 Integral accuracy reduced to 1.0D-05 until final iterations.
 Initial convergence to 1.0D-05 achieved.  Increase integral accuracy.
 SCF Done:  E(RM062X) =  -477.990881923     A.U. after   11 cycles
            NFock= 11  Conv=0.64D-08     -V/T= 2.0019
   1 Symmetry operations used in ECPInt.
 ECPInt:  NShTT=    1770 NPrTT=    5454 LenC2=    1765 LenP2D=    4695.
 LDataN:  DoStor=T MaxTD1= 7 Len=  274
 Calling FoFJK, ICntrl=      2127 FMM=F ISym2X=0 I1Cent= 0 IOpClX= 0 NMat=1 NMatS=1 NMatT=0.
 ***** Axes restored to original set *****
 -------------------------------------------------------------------
 Center     Atomic                   Forces (Hartrees/Bohr)
 Number     Number              X              Y              Z
 -------------------------------------------------------------------
      1        6           0.000368035    0.001055082    0.000157954
      2        6           0.002123478   -0.002496955    0.000187802
      3       16          -0.002351099    0.000804338   -0.000381274
      4        1           0.000255044    0.000000187   -0.000163146
      5        1          -0.000054940   -0.000326623   -0.000136572
      6        1          -0.000034315   -0.000160998    0.000033880
      7        1          -0.000134013    0.000656201    0.000191822
      8        1          -0.000495113    0.000550792    0.000021227
      9        1           0.000322924   -0.000082022    0.000088307
 -------------------------------------------------------------------
 Cartesian Forces:  Max     0.002496955 RMS     0.000855790

 GradGradGradGradGradGradGradGradGradGradGradGradGradGradGradGradGradGrad
 Berny optimization.
 Using GEDIIS/GDIIS optimizer.
 FormGI is forming the generalized inverse of G from B-inverse, IUseBI=4.
 Internal  Forces:  Max     0.002155284 RMS     0.000470259
 Search for a local minimum.
 Step number   2 out of a maximum of   43
 All quantities printed in internal units (Hartrees-Bohrs-Radians)
 Mixed Optimization -- En-DIIS/RFO-DIIS
 Update second derivatives using D2CorX and points    1    2
 DE= -2.43D-04 DEPred=-2.19D-04 R= 1.11D+00
 TightC=F SS=  1.41D+00  RLast= 7.90D-02 DXNew= 5.0454D-01 2.3710D-01
 Trust test= 1.11D+00 RLast= 7.90D-02 DXMaxT set to 3.00D-01
 ITU=  1  0
 Use linear search instead of GDIIS.
     Eigenvalues ---    0.00230   0.00547   0.04423   0.05013   0.05707
     Eigenvalues ---    0.05737   0.11717   0.13745   0.15506   0.16000
     Eigenvalues ---    0.16000   0.16656   0.20935   0.23500   0.27745
     Eigenvalues ---    0.32077   0.34729   0.34841   0.34954   0.35079
     Eigenvalues ---    0.37081
 RFO step:  Lambda=-4.33739611D-05 EMin= 2.30044898D-03
 Quartic linear search produced a step of  0.14735.
 Iteration  1 RMS(Cart)=  0.00581028 RMS(Int)=  0.00002995
 Iteration  2 RMS(Cart)=  0.00002464 RMS(Int)=  0.00001727
 Iteration  3 RMS(Cart)=  0.00000000 RMS(Int)=  0.00001727
 Variable       Old X    -DE/DX   Delta X   Delta X   Delta X     New X
                                 (Linear)    (Quad)   (Total)
    R1        2.87198  -0.00078   0.00112  -0.00327  -0.00214   2.86983
    R2        2.06377  -0.00023   0.00106  -0.00108  -0.00002   2.06375
    R3        2.06010   0.00031   0.00042   0.00089   0.00132   2.06141
    R4        2.05837   0.00011   0.00046   0.00021   0.00067   2.05904
    R5        3.44679  -0.00216  -0.00156  -0.00983  -0.01139   3.43540
    R6        2.05786   0.00057  -0.00013   0.00192   0.00179   2.05964
    R7        2.05633   0.00031  -0.00053   0.00118   0.00065   2.05699
    R8        2.52900  -0.00006   0.00186  -0.00087   0.00099   2.52999
    A1        1.93102  -0.00023   0.00205  -0.00234  -0.00029   1.93073
    A2        1.93215   0.00019  -0.00011   0.00121   0.00110   1.93325
    A3        1.93053   0.00016   0.00048   0.00126   0.00173   1.93226
    A4        1.88622  -0.00003  -0.00121  -0.00027  -0.00148   1.88475
    A5        1.89604   0.00008  -0.00020   0.00106   0.00085   1.89690
    A6        1.88650  -0.00018  -0.00110  -0.00093  -0.00203   1.88447
    A7        1.97889   0.00008   0.00304   0.00079   0.00380   1.98268
    A8        1.93578   0.00007  -0.00073   0.00005  -0.00069   1.93509
    A9        1.94832  -0.00023  -0.00029  -0.00213  -0.00248   1.94584
   A10        1.81863   0.00004  -0.00083   0.00203   0.00121   1.81984
   A11        1.89575   0.00030   0.00207   0.00372   0.00576   1.90151
   A12        1.87966  -0.00025  -0.00348  -0.00441  -0.00791   1.87175
   A13        1.67613   0.00088   0.00008   0.00625   0.00633   1.68246
    D1        3.08773   0.00004   0.00081   0.00831   0.00912   3.09685
    D2        1.04871  -0.00011   0.00038   0.00519   0.00559   1.05430
    D3       -1.04752   0.00031   0.00553   0.01218   0.01771  -1.02980
    D4       -1.10482  -0.00002   0.00055   0.00724   0.00779  -1.09703
    D5        3.13935  -0.00017   0.00013   0.00412   0.00427  -3.13957
    D6        1.04312   0.00025   0.00528   0.01111   0.01639   1.05951
    D7        0.98584  -0.00002  -0.00059   0.00769   0.00710   0.99294
    D8       -1.05318  -0.00017  -0.00101   0.00457   0.00357  -1.04961
    D9        3.13378   0.00026   0.00414   0.01156   0.01569  -3.13371
   D10        1.06098  -0.00005   0.00251   0.00118   0.00372   1.06471
   D11       -3.11561   0.00010   0.00276   0.00301   0.00578  -3.10983
   D12       -1.11564  -0.00004  -0.00070   0.00057  -0.00017  -1.11581
         Item               Value     Threshold  Converged?
 Maximum Force            0.002155     0.000450     NO 
 RMS     Force            0.000470     0.000300     NO 
 Maximum Displacement     0.013090     0.001800     NO 
 RMS     Displacement     0.005811     0.001200     NO 
 Predicted change in Energy=-2.545702D-05
 GradGradGradGradGradGradGradGradGradGradGradGradGradGradGradGradGradGrad

                          Input orientation:                          
 ---------------------------------------------------------------------
 Center     Atomic      Atomic             Coordinates (Angstroms)
 Number     Number       Type             X           Y           Z
 ---------------------------------------------------------------------
      1          6           0       -1.713716   -0.371751    0.038374
      2          6           0       -0.588913    0.644125   -0.057081
      3         16           0        1.069265   -0.094752    0.039854
      4          1           0       -2.685066    0.127065    0.020559
      5          1           0       -1.677536   -1.068784   -0.799956
      6          1           0       -1.634554   -0.948923    0.959149
      7          1           0       -0.622223    1.340260    0.780896
      8          1           0       -0.660407    1.233650   -0.969335
      9          1           0        0.953911   -0.863682   -1.050039
 ---------------------------------------------------------------------
                    Distance matrix (angstroms):
                    1          2          3          4          5
     1  C    0.000000
     2  C    1.518650   0.000000
     3  S    2.796733   1.817936   0.000000
     4  H    1.092088   2.160379   3.760928   0.000000
     5  H    1.090853   2.161255   3.032975   1.765903   0.000000
     6  H    1.089597   2.159605   2.980830   1.772647   1.763708
     7  H    2.161869   1.089917   2.338704   2.511031   3.068594
     8  H    2.168466   1.088511   2.403098   2.510709   2.522784
     9  H    2.922819   2.374816   1.338815   3.920447   2.651249
                    6          7          8          9
     6  H    0.000000
     7  H    2.509371   0.000000
     8  H    3.071096   1.753890   0.000000
     9  H    3.277842   3.270150   2.647892   0.000000
 Stoichiometry    C2H6S
 Framework group  C1[X(C2H6S)]
 Deg. of freedom    21
 Full point group                 C1      NOp   1
 Largest Abelian subgroup         C1      NOp   1
 Largest concise Abelian subgroup C1      NOp   1
                         Standard orientation:                         
 ---------------------------------------------------------------------
 Center     Atomic      Atomic             Coordinates (Angstroms)
 Number     Number       Type             X           Y           Z
 ---------------------------------------------------------------------
      1          6           0        1.628883   -0.350203   -0.053438
      2          6           0        0.492272    0.646689    0.090156
      3         16           0       -1.156538   -0.100187   -0.078643
      4          1           0        2.594612    0.155661    0.010789
      5          1           0        1.588040   -1.099964    0.737860
      6          1           0        1.568903   -0.867760   -1.010390
      7          1           0        0.530251    1.395502   -0.700890
      8          1           0        0.544579    1.177046    1.039283
      9          1           0       -1.048707   -0.936410    0.961323
 ---------------------------------------------------------------------
 Rotational constants (GHZ):          28.9687452           5.3279633           4.8784204
 Standard basis: def2TZVP (5D, 7F)
 There are   150 symmetry adapted cartesian basis functions of A   symmetry.
 There are   135 symmetry adapted basis functions of A   symmetry.
   135 basis functions,   219 primitive gaussians,   150 cartesian basis functions
    17 alpha electrons       17 beta electrons
       nuclear repulsion energy       107.5756404814 Hartrees.
 NAtoms=    9 NActive=    9 NUniq=    9 SFac= 1.00D+00 NAtFMM=   60 NAOKFM=F Big=F
 Integral buffers will be    131072 words long.
 Raffenetti 2 integral format.
 Two-electron integral symmetry is turned on.
 One-electron integrals computed using PRISM.
   1 Symmetry operations used in ECPInt.
 ECPInt:  NShTT=    1770 NPrTT=    5454 LenC2=    1765 LenP2D=    4695.
 LDataN:  DoStor=T MaxTD1= 6 Len=  172
 NBasis=   135 RedAO= T EigKep=  5.12D-04  NBF=   135
 NBsUse=   135 1.00D-06 EigRej= -1.00D+00 NBFU=   135
 Initial guess from the checkpoint file:  "/home/svss/projects/Project-Philicity/GS/hydrocarbon/set-1/GS/mol_26_hc/mol_26_hc.chk"
 B after Tr=    -0.000000   -0.000000    0.000000
         Rot=    0.999999   -0.000959    0.000314   -0.000194 Ang=  -0.12 deg.
 Keep R1 ints in memory in canonical form, NReq=49960238.
 Requested convergence on RMS density matrix=1.00D-08 within 128 cycles.
 Requested convergence on MAX density matrix=1.00D-06.
 Requested convergence on             energy=1.00D-06.
 No special actions if energy rises.
 SCF Done:  E(RM062X) =  -477.990911101     A.U. after    9 cycles
            NFock=  9  Conv=0.66D-08     -V/T= 2.0019
   1 Symmetry operations used in ECPInt.
 ECPInt:  NShTT=    1770 NPrTT=    5454 LenC2=    1765 LenP2D=    4695.
 LDataN:  DoStor=T MaxTD1= 7 Len=  274
 Calling FoFJK, ICntrl=      2127 FMM=F ISym2X=0 I1Cent= 0 IOpClX= 0 NMat=1 NMatS=1 NMatT=0.
 ***** Axes restored to original set *****
 -------------------------------------------------------------------
 Center     Atomic                   Forces (Hartrees/Bohr)
 Number     Number              X              Y              Z
 -------------------------------------------------------------------
      1        6          -0.000166696    0.000018985    0.000001920
      2        6           0.000469502   -0.000460509    0.000085398
      3       16          -0.000412936   -0.000017536   -0.000247555
      4        1           0.000241697   -0.000021276    0.000001631
      5        1           0.000041482    0.000026170    0.000081020
      6        1          -0.000022975    0.000054300   -0.000073256
      7        1          -0.000005912    0.000043289    0.000132021
      8        1          -0.000143228    0.000160416   -0.000222299
      9        1          -0.000000934    0.000196161    0.000241121
 -------------------------------------------------------------------
 Cartesian Forces:  Max     0.000469502 RMS     0.000191327

 GradGradGradGradGradGradGradGradGradGradGradGradGradGradGradGradGradGrad
 Berny optimization.
 Using GEDIIS/GDIIS optimizer.
 FormGI is forming the generalized inverse of G from B-inverse, IUseBI=4.
 Internal  Forces:  Max     0.000445985 RMS     0.000127099
 Search for a local minimum.
 Step number   3 out of a maximum of   43
 All quantities printed in internal units (Hartrees-Bohrs-Radians)
 Mixed Optimization -- En-DIIS/RFO-DIIS
 Swapping is turned off.
 Update second derivatives using D2CorX and points    1    2    3
 DE= -2.92D-05 DEPred=-2.55D-05 R= 1.15D+00
 TightC=F SS=  1.41D+00  RLast= 3.80D-02 DXNew= 5.0454D-01 1.1396D-01
 Trust test= 1.15D+00 RLast= 3.80D-02 DXMaxT set to 3.00D-01
 ITU=  1  1  0
     Eigenvalues ---    0.00229   0.00513   0.04256   0.05055   0.05703
     Eigenvalues ---    0.05728   0.11763   0.13618   0.15824   0.16000
     Eigenvalues ---    0.16210   0.16706   0.19650   0.23295   0.28018
     Eigenvalues ---    0.32008   0.34743   0.34898   0.35043   0.35130
     Eigenvalues ---    0.36827
 En-DIIS/RFO-DIIS/Sim-DIIS IScMMF=       -3 using points:     3    2
 RFO step:  Lambda=-3.29828505D-06.
 DidBck=F Rises=F RFO-DIIS coefs:    1.33647   -0.33647
 Iteration  1 RMS(Cart)=  0.00252838 RMS(Int)=  0.00000479
 Iteration  2 RMS(Cart)=  0.00000416 RMS(Int)=  0.00000236
 Iteration  3 RMS(Cart)=  0.00000000 RMS(Int)=  0.00000236
 Variable       Old X    -DE/DX   Delta X   Delta X   Delta X     New X
                                 (Linear)    (Quad)   (Total)
    R1        2.86983  -0.00012  -0.00072   0.00038  -0.00034   2.86949
    R2        2.06375  -0.00023  -0.00001  -0.00056  -0.00057   2.06318
    R3        2.06141  -0.00007   0.00044  -0.00057  -0.00013   2.06128
    R4        2.05904  -0.00009   0.00022  -0.00044  -0.00021   2.05883
    R5        3.43540  -0.00045  -0.00383   0.00101  -0.00282   3.43258
    R6        2.05964   0.00013   0.00060  -0.00013   0.00047   2.06012
    R7        2.05699   0.00028   0.00022   0.00066   0.00088   2.05787
    R8        2.52999  -0.00032   0.00033  -0.00135  -0.00102   2.52897
    A1        1.93073  -0.00013  -0.00010  -0.00054  -0.00063   1.93009
    A2        1.93325  -0.00001   0.00037  -0.00035   0.00002   1.93326
    A3        1.93226   0.00004   0.00058  -0.00017   0.00041   1.93267
    A4        1.88475   0.00007  -0.00050   0.00078   0.00029   1.88503
    A5        1.89690   0.00004   0.00029  -0.00011   0.00017   1.89707
    A6        1.88447  -0.00001  -0.00068   0.00044  -0.00024   1.88422
    A7        1.98268   0.00002   0.00128  -0.00047   0.00080   1.98349
    A8        1.93509  -0.00003  -0.00023  -0.00041  -0.00065   1.93444
    A9        1.94584  -0.00009  -0.00083  -0.00002  -0.00087   1.94498
   A10        1.81984  -0.00000   0.00041  -0.00053  -0.00012   1.81972
   A11        1.90151   0.00008   0.00194  -0.00036   0.00157   1.90308
   A12        1.87175   0.00003  -0.00266   0.00191  -0.00075   1.87099
   A13        1.68246  -0.00007   0.00213  -0.00237  -0.00024   1.68222
    D1        3.09685  -0.00001   0.00307   0.00044   0.00351   3.10035
    D2        1.05430   0.00000   0.00188   0.00170   0.00358   1.05788
    D3       -1.02980   0.00004   0.00596  -0.00042   0.00554  -1.02427
    D4       -1.09703  -0.00001   0.00262   0.00084   0.00347  -1.09356
    D5       -3.13957   0.00000   0.00144   0.00210   0.00354  -3.13603
    D6        1.05951   0.00004   0.00551  -0.00002   0.00549   1.06500
    D7        0.99294   0.00000   0.00239   0.00105   0.00344   0.99638
    D8       -1.04961   0.00001   0.00120   0.00231   0.00351  -1.04609
    D9       -3.13371   0.00005   0.00528   0.00019   0.00547  -3.12824
   D10        1.06471  -0.00000   0.00125   0.00194   0.00320   1.06790
   D11       -3.10983  -0.00003   0.00194   0.00082   0.00277  -3.10706
   D12       -1.11581   0.00004  -0.00006   0.00260   0.00253  -1.11328
         Item               Value     Threshold  Converged?
 Maximum Force            0.000446     0.000450     YES
 RMS     Force            0.000127     0.000300     YES
 Maximum Displacement     0.005834     0.001800     NO 
 RMS     Displacement     0.002528     0.001200     NO 
 Predicted change in Energy=-1.649305D-06
 GradGradGradGradGradGradGradGradGradGradGradGradGradGradGradGradGradGrad

                          Input orientation:                          
 ---------------------------------------------------------------------
 Center     Atomic      Atomic             Coordinates (Angstroms)
 Number     Number       Type             X           Y           Z
 ---------------------------------------------------------------------
      1          6           0       -1.713721   -0.371878    0.038701
      2          6           0       -0.588176    0.642894   -0.056877
      3         16           0        1.068607   -0.095514    0.039498
      4          1           0       -2.684114    0.128003    0.017472
      5          1           0       -1.676230   -1.070995   -0.797745
      6          1           0       -1.637268   -0.946986    0.960863
      7          1           0       -0.621257    1.338781    0.781640
      8          1           0       -0.661284    1.233698   -0.968730
      9          1           0        0.954203   -0.860791   -1.052402
 ---------------------------------------------------------------------
                    Distance matrix (angstroms):
                    1          2          3          4          5
     1  C    0.000000
     2  C    1.518469   0.000000
     3  S    2.796020   1.816444   0.000000
     4  H    1.091786   2.159536   3.759437   0.000000
     5  H    1.090785   2.161056   3.030952   1.765788   0.000000
     6  H    1.089485   2.159655   2.982563   1.772421   1.763405
     7  H    2.161432   1.090167   2.337438   2.511039   3.068297
     8  H    2.168044   1.088976   2.403300   2.507388   2.524076
     9  H    2.923586   2.372988   1.338276   3.919145   2.651077
                    6          7          8          9
     6  H    0.000000
     7  H    2.507814   0.000000
     8  H    3.071035   1.753978   0.000000
     9  H    3.282741   3.268623   2.646447   0.000000
 Stoichiometry    C2H6S
 Framework group  C1[X(C2H6S)]
 Deg. of freedom    21
 Full point group                 C1      NOp   1
 Largest Abelian subgroup         C1      NOp   1
 Largest concise Abelian subgroup C1      NOp   1
                         Standard orientation:                         
 ---------------------------------------------------------------------
 Center     Atomic      Atomic             Coordinates (Angstroms)
 Number     Number       Type             X           Y           Z
 ---------------------------------------------------------------------
      1          6           0        1.628699   -0.349885   -0.053323
      2          6           0        0.491382    0.645964    0.090006
      3         16           0       -1.156047   -0.100339   -0.078745
      4          1           0        2.593426    0.156742    0.014697
      5          1           0        1.586289   -1.101656    0.735889
      6          1           0        1.571692   -0.865212   -1.011532
      7          1           0        0.529446    1.394603   -0.701546
      8          1           0        0.545032    1.177585    1.038884
      9          1           0       -1.049623   -0.933118    0.963433
 ---------------------------------------------------------------------
 Rotational constants (GHZ):          28.9971539           5.3308566           4.8819960
 Standard basis: def2TZVP (5D, 7F)
 There are   150 symmetry adapted cartesian basis functions of A   symmetry.
 There are   135 symmetry adapted basis functions of A   symmetry.
   135 basis functions,   219 primitive gaussians,   150 cartesian basis functions
    17 alpha electrons       17 beta electrons
       nuclear repulsion energy       107.6118337761 Hartrees.
 NAtoms=    9 NActive=    9 NUniq=    9 SFac= 1.00D+00 NAtFMM=   60 NAOKFM=F Big=F
 Integral buffers will be    131072 words long.
 Raffenetti 2 integral format.
 Two-electron integral symmetry is turned on.
 One-electron integrals computed using PRISM.
   1 Symmetry operations used in ECPInt.
 ECPInt:  NShTT=    1770 NPrTT=    5454 LenC2=    1765 LenP2D=    4695.
 LDataN:  DoStor=T MaxTD1= 6 Len=  172
 NBasis=   135 RedAO= T EigKep=  5.11D-04  NBF=   135
 NBsUse=   135 1.00D-06 EigRej= -1.00D+00 NBFU=   135
 Initial guess from the checkpoint file:  "/home/svss/projects/Project-Philicity/GS/hydrocarbon/set-1/GS/mol_26_hc/mol_26_hc.chk"
 B after Tr=     0.000000    0.000000    0.000000
         Rot=    1.000000    0.000018    0.000089   -0.000069 Ang=   0.01 deg.
 Keep R1 ints in memory in canonical form, NReq=49960238.
 Requested convergence on RMS density matrix=1.00D-08 within 128 cycles.
 Requested convergence on MAX density matrix=1.00D-06.
 Requested convergence on             energy=1.00D-06.
 No special actions if energy rises.
 SCF Done:  E(RM062X) =  -477.990912756     A.U. after    8 cycles
            NFock=  8  Conv=0.67D-08     -V/T= 2.0019
   1 Symmetry operations used in ECPInt.
 ECPInt:  NShTT=    1770 NPrTT=    5454 LenC2=    1765 LenP2D=    4695.
 LDataN:  DoStor=T MaxTD1= 7 Len=  274
 Calling FoFJK, ICntrl=      2127 FMM=F ISym2X=0 I1Cent= 0 IOpClX= 0 NMat=1 NMatS=1 NMatT=0.
 ***** Axes restored to original set *****
 -------------------------------------------------------------------
 Center     Atomic                   Forces (Hartrees/Bohr)
 Number     Number              X              Y              Z
 -------------------------------------------------------------------
      1        6          -0.000087883   -0.000085590   -0.000028943
      2        6           0.000027952    0.000121635    0.000062041
      3       16           0.000000122   -0.000064411   -0.000092643
      4        1           0.000042860    0.000016530    0.000012165
      5        1           0.000018476    0.000010608    0.000023401
      6        1           0.000003358    0.000021732   -0.000003368
      7        1          -0.000022603   -0.000018891    0.000017532
      8        1          -0.000010925   -0.000011945   -0.000017325
      9        1           0.000028644    0.000010332    0.000027140
 -------------------------------------------------------------------
 Cartesian Forces:  Max     0.000121635 RMS     0.000045215

 GradGradGradGradGradGradGradGradGradGradGradGradGradGradGradGradGradGrad
 Berny optimization.
 Using GEDIIS/GDIIS optimizer.
 FormGI is forming the generalized inverse of G from B-inverse, IUseBI=4.
 Internal  Forces:  Max     0.000085602 RMS     0.000026714
 Search for a local minimum.
 Step number   4 out of a maximum of   43
 All quantities printed in internal units (Hartrees-Bohrs-Radians)
 Mixed Optimization -- En-DIIS/RFO-DIIS
 Swapping is turned off.
 Update second derivatives using D2CorX and points    1    2    3    4
 DE= -1.65D-06 DEPred=-1.65D-06 R= 1.00D+00
 TightC=F SS=  1.41D+00  RLast= 1.43D-02 DXNew= 5.0454D-01 4.2962D-02
 Trust test= 1.00D+00 RLast= 1.43D-02 DXMaxT set to 3.00D-01
 ITU=  1  1  1  0
     Eigenvalues ---    0.00231   0.00446   0.04470   0.04977   0.05700
     Eigenvalues ---    0.05730   0.11461   0.13788   0.15818   0.15961
     Eigenvalues ---    0.16088   0.16748   0.21615   0.23476   0.27230
     Eigenvalues ---    0.32468   0.34850   0.34907   0.34978   0.35098
     Eigenvalues ---    0.35942
 En-DIIS/RFO-DIIS/Sim-DIIS IScMMF=       -3 using points:     4    3    2
 RFO step:  Lambda=-2.29756705D-07.
 DidBck=F Rises=F RFO-DIIS coefs:    1.07546   -0.01574   -0.05972
 Iteration  1 RMS(Cart)=  0.00063352 RMS(Int)=  0.00000061
 Iteration  2 RMS(Cart)=  0.00000026 RMS(Int)=  0.00000056
 Variable       Old X    -DE/DX   Delta X   Delta X   Delta X     New X
                                 (Linear)    (Quad)   (Total)
    R1        2.86949   0.00004  -0.00015   0.00027   0.00012   2.86961
    R2        2.06318  -0.00003  -0.00004  -0.00006  -0.00010   2.06307
    R3        2.06128  -0.00002   0.00007  -0.00013  -0.00006   2.06122
    R4        2.05883  -0.00002   0.00002  -0.00007  -0.00005   2.05878
    R5        3.43258   0.00005  -0.00089   0.00093   0.00004   3.43262
    R6        2.06012   0.00000   0.00014  -0.00012   0.00002   2.06014
    R7        2.05787   0.00001   0.00011  -0.00004   0.00007   2.05794
    R8        2.52897  -0.00004  -0.00002  -0.00016  -0.00017   2.52880
    A1        1.93009  -0.00004  -0.00007  -0.00018  -0.00024   1.92985
    A2        1.93326  -0.00001   0.00007  -0.00007  -0.00000   1.93326
    A3        1.93267  -0.00001   0.00013  -0.00019  -0.00006   1.93262
    A4        1.88503   0.00003  -0.00007   0.00029   0.00023   1.88526
    A5        1.89707   0.00002   0.00006  -0.00003   0.00003   1.89711
    A6        1.88422   0.00001  -0.00014   0.00019   0.00005   1.88428
    A7        1.98349  -0.00002   0.00029  -0.00035  -0.00006   1.98343
    A8        1.93444  -0.00002  -0.00009  -0.00004  -0.00013   1.93431
    A9        1.94498  -0.00001  -0.00021  -0.00001  -0.00022   1.94475
   A10        1.81972   0.00004   0.00006   0.00026   0.00033   1.82004
   A11        1.90308   0.00000   0.00046  -0.00049  -0.00002   1.90306
   A12        1.87099   0.00002  -0.00053   0.00069   0.00016   1.87115
   A13        1.68222   0.00009   0.00036   0.00007   0.00043   1.68265
    D1        3.10035   0.00001   0.00081   0.00054   0.00135   3.10170
    D2        1.05788  -0.00001   0.00060   0.00046   0.00106   1.05894
    D3       -1.02427  -0.00001   0.00148  -0.00038   0.00109  -1.02317
    D4       -1.09356   0.00002   0.00073   0.00075   0.00147  -1.09209
    D5       -3.13603   0.00000   0.00052   0.00066   0.00119  -3.13484
    D6        1.06500   0.00000   0.00139  -0.00017   0.00122   1.06622
    D7        0.99638   0.00002   0.00068   0.00082   0.00150   0.99788
    D8       -1.04609   0.00001   0.00048   0.00074   0.00122  -1.04488
    D9       -3.12824   0.00000   0.00135  -0.00010   0.00125  -3.12700
   D10        1.06790  -0.00001   0.00046  -0.00090  -0.00043   1.06747
   D11       -3.10706  -0.00002   0.00055  -0.00096  -0.00041  -3.10747
   D12       -1.11328   0.00002   0.00018  -0.00026  -0.00008  -1.11336
         Item               Value     Threshold  Converged?
 Maximum Force            0.000086     0.000450     YES
 RMS     Force            0.000027     0.000300     YES
 Maximum Displacement     0.001641     0.001800     YES
 RMS     Displacement     0.000634     0.001200     YES
 Predicted change in Energy=-1.122144D-07
 Optimization completed.
    -- Stationary point found.
                           ----------------------------
                           !   Optimized Parameters   !
                           ! (Angstroms and Degrees)  !
 --------------------------                            --------------------------
 ! Name  Definition              Value          Derivative Info.                !
 --------------------------------------------------------------------------------
 ! R1    R(1,2)                  1.5185         -DE/DX =    0.0                 !
 ! R2    R(1,4)                  1.0918         -DE/DX =    0.0                 !
 ! R3    R(1,5)                  1.0908         -DE/DX =    0.0                 !
 ! R4    R(1,6)                  1.0895         -DE/DX =    0.0                 !
 ! R5    R(2,3)                  1.8164         -DE/DX =    0.0                 !
 ! R6    R(2,7)                  1.0902         -DE/DX =    0.0                 !
 ! R7    R(2,8)                  1.089          -DE/DX =    0.0                 !
 ! R8    R(3,9)                  1.3383         -DE/DX =    0.0                 !
 ! A1    A(2,1,4)              110.5863         -DE/DX =    0.0                 !
 ! A2    A(2,1,5)              110.7678         -DE/DX =    0.0                 !
 ! A3    A(2,1,6)              110.7341         -DE/DX =    0.0                 !
 ! A4    A(4,1,5)              108.0045         -DE/DX =    0.0                 !
 ! A5    A(4,1,6)              108.6943         -DE/DX =    0.0                 !
 ! A6    A(5,1,6)              107.958          -DE/DX =    0.0                 !
 ! A7    A(1,2,3)              113.6455         -DE/DX =    0.0                 !
 ! A8    A(1,2,7)              110.8352         -DE/DX =    0.0                 !
 ! A9    A(1,2,8)              111.439          -DE/DX =    0.0                 !
 ! A10   A(3,2,7)              104.2621         -DE/DX =    0.0                 !
 ! A11   A(3,2,8)              109.0387         -DE/DX =    0.0                 !
 ! A12   A(7,2,8)              107.2            -DE/DX =    0.0                 !
 ! A13   A(2,3,9)               96.3844         -DE/DX =    0.0001              !
 ! D1    D(4,1,2,3)            177.6372         -DE/DX =    0.0                 !
 ! D2    D(4,1,2,7)             60.6123         -DE/DX =    0.0                 !
 ! D3    D(4,1,2,8)            -58.6862         -DE/DX =    0.0                 !
 ! D4    D(5,1,2,3)            -62.6563         -DE/DX =    0.0                 !
 ! D5    D(5,1,2,7)           -179.6813         -DE/DX =    0.0                 !
 ! D6    D(5,1,2,8)             61.0203         -DE/DX =    0.0                 !
 ! D7    D(6,1,2,3)             57.0882         -DE/DX =    0.0                 !
 ! D8    D(6,1,2,7)            -59.9368         -DE/DX =    0.0                 !
 ! D9    D(6,1,2,8)           -179.2352         -DE/DX =    0.0                 !
 ! D10   D(1,2,3,9)             61.1864         -DE/DX =    0.0                 !
 ! D11   D(7,2,3,9)           -178.0217         -DE/DX =    0.0                 !
 ! D12   D(8,2,3,9)            -63.7864         -DE/DX =    0.0                 !
 --------------------------------------------------------------------------------
 GradGradGradGradGradGradGradGradGradGradGradGradGradGradGradGradGradGrad

                          Input orientation:                          
 ---------------------------------------------------------------------
 Center     Atomic      Atomic             Coordinates (Angstroms)
 Number     Number       Type             X           Y           Z
 ---------------------------------------------------------------------
      1          6           0       -1.713721   -0.371878    0.038701
      2          6           0       -0.588176    0.642894   -0.056877
      3         16           0        1.068607   -0.095514    0.039498
      4          1           0       -2.684114    0.128003    0.017472
      5          1           0       -1.676230   -1.070995   -0.797745
      6          1           0       -1.637268   -0.946986    0.960863
      7          1           0       -0.621257    1.338781    0.781640
      8          1           0       -0.661284    1.233698   -0.968730
      9          1           0        0.954203   -0.860791   -1.052402
 ---------------------------------------------------------------------
                    Distance matrix (angstroms):
                    1          2          3          4          5
     1  C    0.000000
     2  C    1.518469   0.000000
     3  S    2.796020   1.816444   0.000000
     4  H    1.091786   2.159536   3.759437   0.000000
     5  H    1.090785   2.161056   3.030952   1.765788   0.000000
     6  H    1.089485   2.159655   2.982563   1.772421   1.763405
     7  H    2.161432   1.090167   2.337438   2.511039   3.068297
     8  H    2.168044   1.088976   2.403300   2.507388   2.524076
     9  H    2.923586   2.372988   1.338276   3.919145   2.651077
                    6          7          8          9
     6  H    0.000000
     7  H    2.507814   0.000000
     8  H    3.071035   1.753978   0.000000
     9  H    3.282741   3.268623   2.646447   0.000000
 Stoichiometry    C2H6S
 Framework group  C1[X(C2H6S)]
 Deg. of freedom    21
 Full point group                 C1      NOp   1
 Largest Abelian subgroup         C1      NOp   1
 Largest concise Abelian subgroup C1      NOp   1
                         Standard orientation:                         
 ---------------------------------------------------------------------
 Center     Atomic      Atomic             Coordinates (Angstroms)
 Number     Number       Type             X           Y           Z
 ---------------------------------------------------------------------
      1          6           0        1.628699   -0.349885   -0.053323
      2          6           0        0.491382    0.645964    0.090006
      3         16           0       -1.156047   -0.100339   -0.078745
      4          1           0        2.593426    0.156742    0.014697
      5          1           0        1.586289   -1.101656    0.735889
      6          1           0        1.571692   -0.865212   -1.011532
      7          1           0        0.529446    1.394603   -0.701546
      8          1           0        0.545032    1.177585    1.038884
      9          1           0       -1.049623   -0.933118    0.963433
 ---------------------------------------------------------------------
 Rotational constants (GHZ):          28.9971539           5.3308566           4.8819960

 **********************************************************************

            Population analysis using the SCF Density.

 **********************************************************************

 Orbital symmetries:
       Occupied  (A) (A) (A) (A) (A) (A) (A) (A) (A) (A) (A) (A)
                 (A) (A) (A) (A) (A)
       Virtual   (A) (A) (A) (A) (A) (A) (A) (A) (A) (A) (A) (A)
                 (A) (A) (A) (A) (A) (A) (A) (A) (A) (A) (A) (A)
                 (A) (A) (A) (A) (A) (A) (A) (A) (A) (A) (A) (A)
                 (A) (A) (A) (A) (A) (A) (A) (A) (A) (A) (A) (A)
                 (A) (A) (A) (A) (A) (A) (A) (A) (A) (A) (A) (A)
                 (A) (A) (A) (A) (A) (A) (A) (A) (A) (A) (A) (A)
                 (A) (A) (A) (A) (A) (A) (A) (A) (A) (A) (A) (A)
                 (A) (A) (A) (A) (A) (A) (A) (A) (A) (A) (A) (A)
                 (A) (A) (A) (A) (A) (A) (A) (A) (A) (A) (A) (A)
                 (A) (A) (A) (A) (A) (A) (A) (A) (A) (A)
 The electronic state is 1-A.
 Alpha  occ. eigenvalues --  -89.89034 -10.56843 -10.53411  -8.24969  -6.16941
 Alpha  occ. eigenvalues --   -6.16740  -6.16416  -0.89910  -0.79132  -0.68932
 Alpha  occ. eigenvalues --   -0.54070  -0.50156  -0.47100  -0.43924  -0.41656
 Alpha  occ. eigenvalues --   -0.37790  -0.29240
 Alpha virt. eigenvalues --    0.04716   0.09101   0.09499   0.11736   0.12546
 Alpha virt. eigenvalues --    0.14602   0.15562   0.18654   0.22597   0.24500
 Alpha virt. eigenvalues --    0.25275   0.26319   0.29252   0.30933   0.31055
 Alpha virt. eigenvalues --    0.34245   0.38976   0.41812   0.42935   0.45752
 Alpha virt. eigenvalues --    0.46707   0.47708   0.49188   0.49977   0.53555
 Alpha virt. eigenvalues --    0.55396   0.56757   0.60388   0.63446   0.73023
 Alpha virt. eigenvalues --    0.80585   0.83113   0.85969   0.89202   0.93353
 Alpha virt. eigenvalues --    0.98422   1.05696   1.08153   1.10260   1.12555
 Alpha virt. eigenvalues --    1.15627   1.42713   1.43201   1.50037   1.50448
 Alpha virt. eigenvalues --    1.52937   1.54463   1.55273   1.57393   1.58823
 Alpha virt. eigenvalues --    1.59202   1.61264   1.61999   1.63596   1.66219
 Alpha virt. eigenvalues --    1.71543   1.74172   1.74509   1.78603   1.83989
 Alpha virt. eigenvalues --    1.84712   1.86316   1.88238   1.90127   1.94453
 Alpha virt. eigenvalues --    1.99259   2.06203   2.09869   2.21095   2.22042
 Alpha virt. eigenvalues --    2.25309   2.33557   2.34299   2.36669   2.40942
 Alpha virt. eigenvalues --    2.43605   2.46538   2.55894   2.56868   2.58732
 Alpha virt. eigenvalues --    2.63519   2.64808   2.67206   2.77362   2.77693
 Alpha virt. eigenvalues --    2.81271   2.90636   2.96636   3.05059   3.07273
 Alpha virt. eigenvalues --    3.12419   3.16766   3.18501   3.24720   3.30247
 Alpha virt. eigenvalues --    3.32553   3.35056   3.44538   3.46382   3.49985
 Alpha virt. eigenvalues --    3.63182   3.74078   3.75745   3.87301   3.91082
 Alpha virt. eigenvalues --    3.95201   4.21802   4.28861   4.37988   4.40818
 Alpha virt. eigenvalues --    4.49980   4.68610   8.95927   9.03404   9.33711
 Alpha virt. eigenvalues --   19.26179  22.32526  22.43611
          Condensed to atoms (all electrons):
               1          2          3          4          5          6
     1  C    5.073626   0.274134  -0.067083   0.388636   0.409469   0.410673
     2  C    0.274134   4.991847   0.302121  -0.036410  -0.039970  -0.039247
     3  S   -0.067083   0.302121  15.706766   0.010504  -0.001920   0.003249
     4  H    0.388636  -0.036410   0.010504   0.554362  -0.024042  -0.021432
     5  H    0.409469  -0.039970  -0.001920  -0.024042   0.548294  -0.030000
     6  H    0.410673  -0.039247   0.003249  -0.021432  -0.030000   0.528247
     7  H   -0.038837   0.401743  -0.034303  -0.005580   0.008047  -0.006725
     8  H   -0.047871   0.424095  -0.051269  -0.000768  -0.007006   0.008461
     9  H   -0.006479  -0.034951   0.340837  -0.000116   0.004053  -0.000795
               7          8          9
     1  C   -0.038837  -0.047871  -0.006479
     2  C    0.401743   0.424095  -0.034951
     3  S   -0.034303  -0.051269   0.340837
     4  H   -0.005580  -0.000768  -0.000116
     5  H    0.008047  -0.007006   0.004053
     6  H   -0.006725   0.008461  -0.000795
     7  H    0.556639  -0.032318   0.005709
     8  H   -0.032318   0.560991  -0.004934
     9  H    0.005709  -0.004934   0.559875
 Mulliken charges:
               1
     1  C   -0.396270
     2  C   -0.243361
     3  S   -0.208903
     4  H    0.134846
     5  H    0.133074
     6  H    0.147567
     7  H    0.145626
     8  H    0.150618
     9  H    0.136801
 Sum of Mulliken charges =  -0.00000
 Mulliken charges with hydrogens summed into heavy atoms:
               1
     1  C    0.019218
     2  C    0.052884
     3  S   -0.072102
 Electronic spatial extent (au):  <R**2>=            297.6443
 Charge=             -0.0000 electrons
 Dipole moment (field-independent basis, Debye):
    X=              1.5210    Y=              0.1273    Z=              0.6785  Tot=              1.6703
 Quadrupole moment (field-independent basis, Debye-Ang):
   XX=            -29.2687   YY=            -27.2282   ZZ=            -27.0394
   XY=              1.3156   XZ=             -0.6303   YZ=             -1.6969
 Traceless Quadrupole moment (field-independent basis, Debye-Ang):
   XX=             -1.4233   YY=              0.6172   ZZ=              0.8060
   XY=              1.3156   XZ=             -0.6303   YZ=             -1.6969
 Octapole moment (field-independent basis, Debye-Ang**2):
  XXX=              2.3082  YYY=              0.7513  ZZZ=              1.0885  XYY=             -0.0549
  XXY=             -1.6933  XXZ=              0.3860  XZZ=              0.1354  YZZ=              0.1061
  YYZ=              0.9523  XYZ=              1.8766
 Hexadecapole moment (field-independent basis, Debye-Ang**3):
 XXXX=           -294.1875 YYYY=            -79.7704 ZZZZ=            -50.7474 XXXY=              8.8426
 XXXZ=              0.1922 YYYX=              2.0065 YYYZ=             -3.3705 ZZZX=             -1.2337
 ZZZY=             -1.8986 XXYY=            -62.2430 XXZZ=            -58.5104 YYZZ=            -19.3295
 XXYZ=             -2.4899 YYXZ=             -0.9342 ZZXY=              0.2657
 N-N= 1.076118337761D+02 E-N=-1.346950491650D+03  KE= 4.770787685274D+02
 Unable to Open any file for archive entry.
 1\1\GINC-NODE12\FOpt\RM062X\def2TZVP\C2H6S1\SVSS\20-Jun-2022\0\\# opt 
 freq M062X/def2tzvp\\converted from /home/svss/projects/Project-Philic
 ity/GS/hydrocarbon/set-1/GS/mol_26_hc/mol_26_hc_cregen_best.xyz\\0,1\C
 ,-1.7137207558,-0.3718784628,0.0387011271\C,-0.588176242,0.6428940557,
 -0.0568772525\S,1.0686074725,-0.095514363,0.0394980946\H,-2.6841143834
 ,0.1280030041,0.0174715412\H,-1.6762297036,-1.0709951729,-0.7977448688
 \H,-1.6372682929,-0.9469862887,0.9608632634\H,-0.6212568953,1.33878077
 93,0.7816398319\H,-0.6612839738,1.2336975169,-0.968730124\H,0.95420277
 43,-0.8607910686,-1.0524016129\\Version=AS64L-G16RevC.01\State=1-A\HF=
 -477.9909128\RMSD=6.740e-09\RMSF=4.522e-05\Dipole=-0.6028406,0.0608627
 ,-0.2544258\Quadrupole=-1.053785,0.2781206,0.7756644,-0.9417949,-0.516
 8522,1.2505429\PG=C01 [X(C2H6S1)]\\@
 The archive entry for this job was punched.


 Everywhere is walking distance if you have the time.
                                    -- Steven Wright
 Job cpu time:       0 days  0 hours  3 minutes 18.0 seconds.
 Elapsed time:       0 days  0 hours  0 minutes 28.7 seconds.
 File lengths (MBytes):  RWF=     27 Int=      0 D2E=      0 Chk=      3 Scr=      2
 Normal termination of Gaussian 16 at Mon Jun 20 18:55:25 2022.
 Link1:  Proceeding to internal job step number  2.
 --------------------------------------------------------------------
 #N Geom=AllCheck Guess=TCheck SCRF=Check GenChk RM062X/def2TZVP Freq
 --------------------------------------------------------------------
 1/10=4,29=7,30=1,38=1,40=1/1,3;
 2/12=2,40=1/2;
 3/5=44,7=101,11=2,14=-4,25=1,30=1,70=2,71=2,74=-55,116=1,140=1/1,2,3;
 4/5=101/1;
 5/5=2,38=6,98=1/2;
 8/6=4,10=90,11=11/1;
 11/6=1,8=1,9=11,15=111,16=1/1,2,10;
 10/6=1/2;
 6/7=2,8=2,9=2,10=2,28=1/1;
 7/8=1,10=1,25=1/1,2,3,16;
 1/10=4,30=1/3;
 99//99;
 Structure from the checkpoint file:  "/home/svss/projects/Project-Philicity/GS/hydrocarbon/set-1/GS/mol_26_hc/mol_26_hc.chk"
 ----------------------------------------------------------------------
 converted from /home/svss/projects/Project-Philicity/GS/hydrocarbon/se
 t-1/GS/mol_26_hc/mol_26_hc_cregen_best.xyz
 ----------------------------------------------------------------------
 Charge =  0 Multiplicity = 1
 Redundant internal coordinates found in file.  (old form).
 C,0,-1.7137207558,-0.3718784628,0.0387011271
 C,0,-0.588176242,0.6428940557,-0.0568772525
 S,0,1.0686074725,-0.095514363,0.0394980946
 H,0,-2.6841143834,0.1280030041,0.0174715412
 H,0,-1.6762297036,-1.0709951729,-0.7977448688
 H,0,-1.6372682929,-0.9469862887,0.9608632634
 H,0,-0.6212568953,1.3387807793,0.7816398319
 H,0,-0.6612839738,1.2336975169,-0.968730124
 H,0,0.9542027743,-0.8607910686,-1.0524016129
 Recover connectivity data from disk.

 GradGradGradGradGradGradGradGradGradGradGradGradGradGradGradGradGradGrad
 Berny optimization.
 Initialization pass.
                           ----------------------------
                           !    Initial Parameters    !
                           ! (Angstroms and Degrees)  !
 --------------------------                            --------------------------
 ! Name  Definition              Value          Derivative Info.                !
 --------------------------------------------------------------------------------
 ! R1    R(1,2)                  1.5185         calculate D2E/DX2 analytically  !
 ! R2    R(1,4)                  1.0918         calculate D2E/DX2 analytically  !
 ! R3    R(1,5)                  1.0908         calculate D2E/DX2 analytically  !
 ! R4    R(1,6)                  1.0895         calculate D2E/DX2 analytically  !
 ! R5    R(2,3)                  1.8164         calculate D2E/DX2 analytically  !
 ! R6    R(2,7)                  1.0902         calculate D2E/DX2 analytically  !
 ! R7    R(2,8)                  1.089          calculate D2E/DX2 analytically  !
 ! R8    R(3,9)                  1.3383         calculate D2E/DX2 analytically  !
 ! A1    A(2,1,4)              110.5863         calculate D2E/DX2 analytically  !
 ! A2    A(2,1,5)              110.7678         calculate D2E/DX2 analytically  !
 ! A3    A(2,1,6)              110.7341         calculate D2E/DX2 analytically  !
 ! A4    A(4,1,5)              108.0045         calculate D2E/DX2 analytically  !
 ! A5    A(4,1,6)              108.6943         calculate D2E/DX2 analytically  !
 ! A6    A(5,1,6)              107.958          calculate D2E/DX2 analytically  !
 ! A7    A(1,2,3)              113.6455         calculate D2E/DX2 analytically  !
 ! A8    A(1,2,7)              110.8352         calculate D2E/DX2 analytically  !
 ! A9    A(1,2,8)              111.439          calculate D2E/DX2 analytically  !
 ! A10   A(3,2,7)              104.2621         calculate D2E/DX2 analytically  !
 ! A11   A(3,2,8)              109.0387         calculate D2E/DX2 analytically  !
 ! A12   A(7,2,8)              107.2            calculate D2E/DX2 analytically  !
 ! A13   A(2,3,9)               96.3844         calculate D2E/DX2 analytically  !
 ! D1    D(4,1,2,3)            177.6372         calculate D2E/DX2 analytically  !
 ! D2    D(4,1,2,7)             60.6123         calculate D2E/DX2 analytically  !
 ! D3    D(4,1,2,8)            -58.6862         calculate D2E/DX2 analytically  !
 ! D4    D(5,1,2,3)            -62.6563         calculate D2E/DX2 analytically  !
 ! D5    D(5,1,2,7)           -179.6813         calculate D2E/DX2 analytically  !
 ! D6    D(5,1,2,8)             61.0203         calculate D2E/DX2 analytically  !
 ! D7    D(6,1,2,3)             57.0882         calculate D2E/DX2 analytically  !
 ! D8    D(6,1,2,7)            -59.9368         calculate D2E/DX2 analytically  !
 ! D9    D(6,1,2,8)           -179.2352         calculate D2E/DX2 analytically  !
 ! D10   D(1,2,3,9)             61.1864         calculate D2E/DX2 analytically  !
 ! D11   D(7,2,3,9)           -178.0217         calculate D2E/DX2 analytically  !
 ! D12   D(8,2,3,9)            -63.7864         calculate D2E/DX2 analytically  !
 --------------------------------------------------------------------------------
 Trust Radius=3.00D-01 FncErr=1.00D-07 GrdErr=1.00D-07 EigMax=2.50D+02 EigMin=1.00D-04
 Number of steps in this run=      2 maximum allowed number of steps=      2.
 GradGradGradGradGradGradGradGradGradGradGradGradGradGradGradGradGradGrad

                          Input orientation:                          
 ---------------------------------------------------------------------
 Center     Atomic      Atomic             Coordinates (Angstroms)
 Number     Number       Type             X           Y           Z
 ---------------------------------------------------------------------
      1          6           0       -1.713721   -0.371878    0.038701
      2          6           0       -0.588176    0.642894   -0.056877
      3         16           0        1.068607   -0.095514    0.039498
      4          1           0       -2.684114    0.128003    0.017472
      5          1           0       -1.676230   -1.070995   -0.797745
      6          1           0       -1.637268   -0.946986    0.960863
      7          1           0       -0.621257    1.338781    0.781640
      8          1           0       -0.661284    1.233698   -0.968730
      9          1           0        0.954203   -0.860791   -1.052402
 ---------------------------------------------------------------------
                    Distance matrix (angstroms):
                    1          2          3          4          5
     1  C    0.000000
     2  C    1.518469   0.000000
     3  S    2.796020   1.816444   0.000000
     4  H    1.091786   2.159536   3.759437   0.000000
     5  H    1.090785   2.161056   3.030952   1.765788   0.000000
     6  H    1.089485   2.159655   2.982563   1.772421   1.763405
     7  H    2.161432   1.090167   2.337438   2.511039   3.068297
     8  H    2.168044   1.088976   2.403300   2.507388   2.524076
     9  H    2.923586   2.372988   1.338276   3.919145   2.651077
                    6          7          8          9
     6  H    0.000000
     7  H    2.507814   0.000000
     8  H    3.071035   1.753978   0.000000
     9  H    3.282741   3.268623   2.646447   0.000000
 Stoichiometry    C2H6S
 Framework group  C1[X(C2H6S)]
 Deg. of freedom    21
 Full point group                 C1      NOp   1
 Largest Abelian subgroup         C1      NOp   1
 Largest concise Abelian subgroup C1      NOp   1
                         Standard orientation:                         
 ---------------------------------------------------------------------
 Center     Atomic      Atomic             Coordinates (Angstroms)
 Number     Number       Type             X           Y           Z
 ---------------------------------------------------------------------
      1          6           0        1.628699   -0.349885   -0.053323
      2          6           0        0.491382    0.645964    0.090006
      3         16           0       -1.156047   -0.100339   -0.078745
      4          1           0        2.593426    0.156742    0.014697
      5          1           0        1.586289   -1.101656    0.735889
      6          1           0        1.571692   -0.865212   -1.011532
      7          1           0        0.529446    1.394603   -0.701546
[...]
 Total                   50.190             14.943             68.781
 Electronic               0.000              0.000              0.000
 Translational            0.889              2.981             38.294
 Rotational               0.889              2.981             23.570
 Vibrational             48.413              8.981              6.917
 Vibration     1          0.612              1.923              2.946
 Vibration     2          0.667              1.748              1.671
 Vibration     3          0.716              1.606              1.237
                       Q            Log10(Q)             Ln(Q)
 Total Bot       0.642157D-22        -22.192359        -51.099795
 Total V=0       0.253175D+13         12.403420         28.559931
 Vib (Bot)       0.105878D-33        -33.975193        -78.230774
 Vib (Bot)    1  0.156819D+01          0.195399          0.449923
 Vib (Bot)    2  0.751348D+00         -0.124159         -0.285887
 Vib (Bot)    3  0.556708D+00         -0.254372         -0.585714
 Vib (V=0)       0.417432D+01          0.620586          1.428952
 Vib (V=0)    1  0.214597D+01          0.331624          0.763593
 Vib (V=0)    2  0.140251D+01          0.146906          0.338263
 Vib (V=0)    3  0.124828D+01          0.096312          0.221767
 Electronic      0.100000D+01          0.000000          0.000000
 Translational   0.191973D+08          7.283241         16.770283
 Rotational      0.315932D+05          4.499593         10.360696
 ***** Axes restored to original set *****
 -------------------------------------------------------------------
 Center     Atomic                   Forces (Hartrees/Bohr)
 Number     Number              X              Y              Z
 -------------------------------------------------------------------
      1        6          -0.000087912   -0.000085589   -0.000028927
      2        6           0.000027915    0.000121610    0.000062067
      3       16           0.000000144   -0.000064401   -0.000092649
      4        1           0.000042885    0.000016519    0.000012167
      5        1           0.000018477    0.000010612    0.000023399
      6        1           0.000003359    0.000021743   -0.000003385
      7        1          -0.000022599   -0.000018890    0.000017530
      8        1          -0.000010915   -0.000011937   -0.000017337
      9        1           0.000028645    0.000010333    0.000027136
 -------------------------------------------------------------------
 Cartesian Forces:  Max     0.000121610 RMS     0.000045216
 FormGI is forming the generalized inverse of G from B-inverse, IUseBI=4.

 GradGradGradGradGradGradGradGradGradGradGradGradGradGradGradGradGradGrad
 Berny optimization.
 Internal  Forces:  Max     0.000085606 RMS     0.000026716
 Search for a local minimum.
 Step number   1 out of a maximum of    2
 All quantities printed in internal units (Hartrees-Bohrs-Radians)
 Second derivative matrix not updated -- analytic derivatives used.
 ITU=  0
     Eigenvalues ---    0.00133   0.00279   0.04222   0.04407   0.04477
     Eigenvalues ---    0.04612   0.09097   0.10983   0.12264   0.13698
     Eigenvalues ---    0.16071   0.17065   0.21873   0.23683   0.27396
     Eigenvalues ---    0.31092   0.34049   0.34111   0.34389   0.34879
     Eigenvalues ---    0.35150
 Angle between quadratic step and forces=  75.03 degrees.
 Linear search not attempted -- first point.
 Iteration  1 RMS(Cart)=  0.00125271 RMS(Int)=  0.00000098
 Iteration  2 RMS(Cart)=  0.00000103 RMS(Int)=  0.00000002
 Iteration  3 RMS(Cart)=  0.00000000 RMS(Int)=  0.00000002
 Variable       Old X    -DE/DX   Delta X   Delta X   Delta X     New X
                                 (Linear)    (Quad)   (Total)
    R1        2.86949   0.00004   0.00000   0.00026   0.00026   2.86975
    R2        2.06318  -0.00003   0.00000  -0.00009  -0.00009   2.06308
    R3        2.06128  -0.00002   0.00000  -0.00009  -0.00009   2.06119
    R4        2.05883  -0.00002   0.00000  -0.00005  -0.00005   2.05878
    R5        3.43258   0.00005   0.00000   0.00020   0.00020   3.43278
    R6        2.06012   0.00000   0.00000  -0.00003  -0.00003   2.06009
    R7        2.05787   0.00001   0.00000   0.00002   0.00002   2.05789
    R8        2.52897  -0.00004   0.00000  -0.00016  -0.00016   2.52881
    A1        1.93009  -0.00004   0.00000  -0.00034  -0.00034   1.92975
    A2        1.93326  -0.00001   0.00000  -0.00002  -0.00002   1.93324
    A3        1.93267  -0.00001   0.00000  -0.00013  -0.00013   1.93255
    A4        1.88503   0.00003   0.00000   0.00036   0.00036   1.88539
    A5        1.89707   0.00002   0.00000   0.00005   0.00005   1.89712
    A6        1.88422   0.00001   0.00000   0.00011   0.00011   1.88433
    A7        1.98349  -0.00002   0.00000  -0.00015  -0.00015   1.98333
    A8        1.93444  -0.00002   0.00000  -0.00018  -0.00018   1.93426
    A9        1.94498  -0.00001   0.00000  -0.00019  -0.00019   1.94479
   A10        1.81972   0.00004   0.00000   0.00030   0.00030   1.82002
   A11        1.90308   0.00000   0.00000  -0.00007  -0.00007   1.90302
   A12        1.87099   0.00002   0.00000   0.00034   0.00034   1.87134
   A13        1.68222   0.00009   0.00000   0.00034   0.00034   1.68257
    D1        3.10035   0.00001   0.00000   0.00243   0.00243   3.10278
    D2        1.05788  -0.00001   0.00000   0.00227   0.00227   1.06015
    D3       -1.02427  -0.00001   0.00000   0.00208   0.00208  -1.02219
    D4       -1.09356   0.00002   0.00000   0.00264   0.00264  -1.09092
    D5       -3.13603   0.00000   0.00000   0.00248   0.00248  -3.13355
    D6        1.06500   0.00000   0.00000   0.00229   0.00229   1.06729
    D7        0.99638   0.00002   0.00000   0.00268   0.00268   0.99905
    D8       -1.04609   0.00001   0.00000   0.00252   0.00252  -1.04358
    D9       -3.12824   0.00000   0.00000   0.00232   0.00232  -3.12592
   D10        1.06790  -0.00001   0.00000   0.00019   0.00019   1.06809
   D11       -3.10706  -0.00002   0.00000   0.00008   0.00008  -3.10698
   D12       -1.11328   0.00002   0.00000   0.00060   0.00060  -1.11269
         Item               Value     Threshold  Converged?
 Maximum Force            0.000086     0.000450     YES
 RMS     Force            0.000027     0.000300     YES
 Maximum Displacement     0.003272     0.001800     NO 
 RMS     Displacement     0.001253     0.001200     NO 
 Predicted change in Energy=-1.454327D-07
                           ----------------------------
                           ! Non-Optimized Parameters !
                           ! (Angstroms and Degrees)  !
 --------------------------                            --------------------------
 ! Name  Definition              Value          Derivative Info.                !
 --------------------------------------------------------------------------------
 ! R1    R(1,2)                  1.5186         -DE/DX =    0.0                 !
 ! R2    R(1,4)                  1.0917         -DE/DX =    0.0                 !
 ! R3    R(1,5)                  1.0907         -DE/DX =    0.0                 !
 ! R4    R(1,6)                  1.0895         -DE/DX =    0.0                 !
 ! R5    R(2,3)                  1.8165         -DE/DX =    0.0                 !
 ! R6    R(2,7)                  1.0902         -DE/DX =    0.0                 !
 ! R7    R(2,8)                  1.089          -DE/DX =    0.0                 !
 ! R8    R(3,9)                  1.3382         -DE/DX =    0.0                 !
 ! A1    A(2,1,4)              110.5666         -DE/DX =    0.0                 !
 ! A2    A(2,1,5)              110.7665         -DE/DX =    0.0                 !
 ! A3    A(2,1,6)              110.7267         -DE/DX =    0.0                 !
 ! A4    A(4,1,5)              108.025          -DE/DX =    0.0                 !
 ! A5    A(4,1,6)              108.6972         -DE/DX =    0.0                 !
 ! A6    A(5,1,6)              107.9642         -DE/DX =    0.0                 !
 ! A7    A(1,2,3)              113.6367         -DE/DX =    0.0                 !
 ! A8    A(1,2,7)              110.8248         -DE/DX =    0.0                 !
 ! A9    A(1,2,8)              111.4283         -DE/DX =    0.0                 !
 ! A10   A(3,2,7)              104.2794         -DE/DX =    0.0                 !
 ! A11   A(3,2,8)              109.035          -DE/DX =    0.0                 !
 ! A12   A(7,2,8)              107.2197         -DE/DX =    0.0                 !
 ! A13   A(2,3,9)               96.4039         -DE/DX =    0.0001              !
 ! D1    D(4,1,2,3)            177.7763         -DE/DX =    0.0                 !
 ! D2    D(4,1,2,7)             60.7422         -DE/DX =    0.0                 !
 ! D3    D(4,1,2,8)            -58.5672         -DE/DX =    0.0                 !
 ! D4    D(5,1,2,3)            -62.5052         -DE/DX =    0.0                 !
 ! D5    D(5,1,2,7)           -179.5393         -DE/DX =    0.0                 !
 ! D6    D(5,1,2,8)             61.1513         -DE/DX =    0.0                 !
 ! D7    D(6,1,2,3)             57.2415         -DE/DX =    0.0                 !
 ! D8    D(6,1,2,7)            -59.7927         -DE/DX =    0.0                 !
 ! D9    D(6,1,2,8)           -179.1021         -DE/DX =    0.0                 !
 ! D10   D(1,2,3,9)             61.1973         -DE/DX =    0.0                 !
 ! D11   D(7,2,3,9)           -178.0171         -DE/DX =    0.0                 !
 ! D12   D(8,2,3,9)            -63.7523         -DE/DX =    0.0                 !
 --------------------------------------------------------------------------------
 GradGradGradGradGradGradGradGradGradGradGradGradGradGradGradGradGradGrad


 ----------------------------------------------------------------------

 Electric dipole moment (input orientation):
 (Debye = 10**-18 statcoulomb cm , SI units = C m)
                  (au)            (Debye)         (10**-30 SI)
   Tot        0.657156D+00      0.167032D+01      0.557160D+01
   x         -0.602841D+00     -0.153227D+01     -0.511110D+01
   y          0.608626D-01      0.154697D+00      0.516015D+00
   z         -0.254426D+00     -0.646686D+00     -0.215711D+01

 Dipole polarizability, Alpha (input orientation).
 (esu units = cm**3 , SI units = C**2 m**2 J**-1)
 Alpha(0;0):
               (au)            (10**-24 esu)      (10**-40 SI)
   iso        0.436647D+02      0.647043D+01      0.719933D+01
   aniso      0.146985D+02      0.217809D+01      0.242345D+01
   xx         0.527061D+02      0.781024D+01      0.869007D+01
   yx        -0.255615D+01     -0.378783D+00     -0.421453D+00
   yy         0.400885D+02      0.594051D+01      0.660971D+01
   zx        -0.565583D-01     -0.838108D-02     -0.932521D-02
   zy         0.180949D+01      0.268138D+00      0.298344D+00
   zz         0.381993D+02      0.566055D+01      0.629821D+01

 ----------------------------------------------------------------------

 Dipole orientation:
     6         -1.38396594          0.88997776          2.87739878
     6         -0.26419206         -1.12935061          1.17375611
    16          0.71478564          0.04878509         -1.89808555
     1         -2.01061495          0.06721000          4.66263241
     1          0.01299542          2.34500079          3.30201801
     1         -2.99230381          1.79981079          1.96953043
     1         -1.66183926         -2.57918054          0.73941071
     1          1.33057713         -2.07085211          2.07103068
     1          2.43402170          1.69034872         -1.03483095

 Electric dipole moment (dipole orientation):
 (Debye = 10**-18 statcoulomb cm , SI units = C m)
                  (au)            (Debye)         (10**-30 SI)
   Tot        0.657156D+00      0.167032D+01      0.557160D+01
   x          0.000000D+00      0.000000D+00      0.000000D+00
   y          0.000000D+00      0.000000D+00      0.000000D+00
   z          0.657156D+00      0.167032D+01      0.557160D+01

 Dipole polarizability, Alpha (dipole orientation).
 (esu units = cm**3 , SI units = C**2 m**2 J**-1)
 Alpha(0;0):
               (au)            (10**-24 esu)      (10**-40 SI)
   iso        0.436647D+02      0.647043D+01      0.719933D+01
   aniso      0.146985D+02      0.217809D+01      0.242345D+01
   xx         0.401652D+02      0.595187D+01      0.662235D+01
   yx         0.218262D+01      0.323431D+00      0.359865D+00
   yy         0.401409D+02      0.594827D+01      0.661835D+01
   zx        -0.540898D+01     -0.801528D+00     -0.891820D+00
   zy        -0.100014D+01     -0.148205D+00     -0.164900D+00
   zz         0.506878D+02      0.751116D+01      0.835729D+01

 ----------------------------------------------------------------------
 Unable to Open any file for archive entry.
 1\1\GINC-NODE12\Freq\RM062X\def2TZVP\C2H6S1\SVSS\20-Jun-2022\0\\#N Geo
 m=AllCheck Guess=TCheck SCRF=Check GenChk RM062X/def2TZVP Freq\\conver
 ted from /home/svss/projects/Project-Philicity/GS/hydrocarbon/set-1/GS
 /mol_26_hc/mol_26_hc_cregen_best.xyz\\0,1\C,-1.7137207558,-0.371878462
 8,0.0387011271\C,-0.588176242,0.6428940557,-0.0568772525\S,1.068607472
 5,-0.095514363,0.0394980946\H,-2.6841143834,0.1280030041,0.0174715412\
 H,-1.6762297036,-1.0709951729,-0.7977448688\H,-1.6372682929,-0.9469862
 887,0.9608632634\H,-0.6212568953,1.3387807793,0.7816398319\H,-0.661283
 9738,1.2336975169,-0.968730124\H,0.9542027743,-0.8607910686,-1.0524016
 129\\Version=AS64L-G16RevC.01\State=1-A\HF=-477.9909128\RMSD=1.864e-09
 \RMSF=4.522e-05\ZeroPoint=0.0752135\Thermal=0.0799834\ETot=-477.910929
 4\HTot=-477.9099852\GTot=-477.9426651\Dipole=-0.602841,0.0608626,-0.25
 44257\DipoleDeriv=-0.0609354,-0.037215,0.0160523,0.0584521,0.0271728,0
 .0025404,-0.0096326,0.0184092,0.0675751,0.3959892,-0.0437677,0.0050349
 ,-0.1479165,0.0857894,-0.026944,-0.0639481,0.0091413,0.0331298,-0.1947
 437,-0.0286881,0.0913089,0.0245619,-0.1655545,0.0754993,0.1274917,0.06
 17876,-0.0638788,-0.1647789,0.0454987,0.0022422,0.0467684,0.0212655,0.
 0048948,-0.0002916,0.0025245,0.0858236,0.0440988,0.0151919,0.0428059,-
 0.03326,-0.0142799,-0.0704352,0.0007033,-0.0975032,-0.0480648,0.058019
 ,0.007734,-0.0413623,-0.0330799,0.0144749,0.0558706,0.0063294,0.076567
 1,-0.0509313,-0.0103995,0.0109512,0.0095332,0.0023864,-0.0108241,-0.06
 38019,-0.0038425,-0.0839327,-0.0013418,-0.0754223,0.0500122,-0.0249096
 ,0.0294668,-0.0178604,0.0724333,-0.0294937,0.0923823,-0.024182,0.00817
 28,-0.0197172,-0.1007057,0.0526208,0.0598162,-0.0500575,-0.0273161,-0.
 0793762,0.0018703\Polar=52.7061298,-2.5561523,40.0885441,-0.0565583,1.
 8094882,38.1992979\Quadrupole=-1.0537846,0.2781203,0.7756643,-0.941795
 4,-0.5168527,1.2505429\PG=C01 [X(C2H6S1)]\NImag=0\\0.51830385,-0.04820
 377,0.54070926,0.00655469,0.00048246,0.58077136,-0.13813506,-0.0690845
 1,0.00493096,0.36454768,-0.07174742,-0.14043279,0.00732941,0.03405230,
 0.49900526,0.00730586,0.00645110,-0.08234074,0.00980833,0.00822886,0.5
 8712618,-0.03475163,0.01518142,-0.00007234,-0.12133579,0.02573854,-0.0
 3110726,0.19952633,-0.00922685,0.00617198,-0.00246274,0.04473414,-0.05
 109467,0.00499341,-0.04434179,0.14322858,-0.00013506,-0.00142429,0.001
 10987,-0.00884525,-0.00584860,-0.04837081,0.05295041,0.12524982,0.2271
 3423,-0.25528855,0.11024348,-0.00432170,-0.02019485,0.01121949,-0.0008
 0299,-0.00401864,-0.00269956,0.00043510,0.27900209,0.11058035,-0.10676
 767,0.00266920,-0.01965377,0.01035649,-0.00052650,-0.00463679,-0.00032
 316,-0.00008814,-0.11928941,0.11263575,-0.00439627,0.00260374,-0.04799
 055,0.00178268,-0.00098269,-0.00124756,0.00009961,0.00001416,0.0010960
 8,0.00490283,-0.00261184,0.04580338,-0.04692359,0.00956552,0.01030865,
 -0.00175717,-0.01691046,-0.02082153,0.00229568,-0.00078365,-0.00087812
 ,-0.00035779,0.01745872,0.02298821,0.05073667,0.00787341,-0.15430364,-
 0.13117751,0.00057994,-0.01566996,-0.01814841,0.00104946,0.00053682,0.
 00090613,0.00007053,-0.00956995,-0.01097702,-0.00497512,0.16816871,0.0
 0910394,-0.13210926,-0.20890530,0.00024208,0.00227168,0.00271654,-0.00
 030016,0.00087979,0.00048928,0.00022712,0.00189622,0.00105172,-0.01072
 591,0.14473318,0.22266161,-0.04800321,0.01328992,-0.02014769,-0.000266
 03,-0.01426004,0.02317908,0.00213303,-0.00016690,0.00029479,-0.0010655
 5,0.01372404,-0.02482139,-0.00102306,-0.00092860,0.00181618,0.05116416
 ,0.01114820,-0.12020286,0.11991664,0.00176229,-0.01365380,0.02037629,0
 .00068219,0.00111727,-0.00075997,0.00034589,-0.00789549,0.01187580,-0.
 00181097,0.01192205,-0.01812965,-0.00886497,0.13061204,-0.01764481,0.1
 2098941,-0.24615394,-0.00026291,0.00046829,-0.00061124,0.00002926,-0.0
 0090237,0.00045194,-0.00018305,-0.00148064,0.00107897,-0.00219701,0.01
 336957,-0.02012931,0.01995268,-0.13261007,0.26330304,0.00055155,-0.017
 37890,-0.02026685,-0.04209982,0.00676618,0.00907847,-0.00378943,0.0165
 8048,0.01963887,0.00079453,0.00082415,-0.00019696,-0.00357560,-0.00369
 680,0.00085167,0.00074397,0.00072824,0.00043822,0.05371564,-0.00000420
 ,-0.01446892,-0.01706059,0.00385521,-0.15458066,-0.13368825,0.00303664
 ,-0.00822768,-0.00859158,0.00015042,0.00099431,0.00017771,-0.00374251,
 -0.00196020,0.00081605,0.00086528,0.00036523,0.00010336,-0.00493485,0.
 16665161,-0.00036715,0.00284612,0.00318682,0.00708623,-0.13308258,-0.2
 1289172,0.00065986,0.00116416,0.00165789,-0.00052010,-0.00030616,0.000
 04866,0.00043669,0.00109987,0.00143840,-0.00042951,-0.00003964,0.00068
 550,-0.00753885,0.14431330,0.22531140,0.00185752,-0.01412642,0.0219760
 4,-0.04052678,0.00880890,-0.01808361,-0.01490587,0.01669463,-0.0193525
 7,0.00073745,0.00094793,-0.00007378,0.00075545,0.00058331,-0.00065591,
 -0.00356275,-0.00380742,-0.00013706,0.00016873,-0.00157778,0.00141283,
 0.05421774,0.00034271,-0.01149990,0.01928200,0.00311678,-0.12626406,0.
 12393233,0.00840309,-0.00569036,0.00670944,-0.00007557,0.00071136,-0.0
 0016168,0.00102462,0.00039966,-0.00016344,-0.00376278,-0.00224038,-0.0
 0006222,-0.00221808,0.01200672,-0.01737122,-0.00609322,0.13272858,0.00
 010808,-0.00053586,0.00037030,-0.01446718,0.12225489,-0.24541276,0.001
 20480,-0.00225559,0.00330282,0.00053408,0.00033021,-0.00005173,0.00031
 969,0.00016614,0.00068646,0.00012345,-0.00052961,0.00158026,-0.0018575
 0,0.01331194,-0.02049444,0.01424823,-0.13253706,0.25927164,0.00238913,
 0.00051325,0.00103824,-0.00023217,0.01633249,0.02144365,-0.02515368,-0
 .02079049,-0.04410817,0.00039132,0.00004479,-0.00028492,-0.00015058,-0
 .00055613,-0.00055901,-0.00012055,-0.00018346,0.00000468,-0.00650956,0
 .00235178,-0.00074000,0.00125851,-0.00073755,-0.00021365,0.02812757,-0
 .00076244,0.00079454,0.00102114,0.00063762,-0.00766581,-0.01161884,-0.
 00511276,-0.08571879,-0.11615281,0.00003474,-0.00014164,0.00006184,0.0
 0017385,0.00047650,-0.00019457,0.00010405,-0.00002406,0.00012467,0.003
 32957,-0.00078042,0.00137615,-0.00142994,-0.00015163,-0.00020506,0.003
 02530,0.09321131,-0.00052926,0.00069658,-0.00004781,-0.00027494,-0.000
 63925,0.00103212,-0.02346417,-0.12668064,-0.18687130,-0.00027129,0.000
 11766,0.00021103,0.00056933,0.00002805,-0.00000941,0.00003241,-0.00009
 978,-0.00020521,-0.00014707,0.00061806,0.00105750,0.00066582,0.0003718
 5,0.00074745,0.02341918,0.12558749,0.18408562\\0.00008791,0.00008559,0
 .00002893,-0.00002792,-0.00012161,-0.00006207,-0.00000014,0.00006440,0
 .00009265,-0.00004288,-0.00001652,-0.00001217,-0.00001848,-0.00001061,
 -0.00002340,-0.00000336,-0.00002174,0.00000339,0.00002260,0.00001889,-
 0.00001753,0.00001091,0.00001194,0.00001734,-0.00002864,-0.00001033,-0
 .00002714\\\@
 The archive entry for this job was punched.


 ...THE PHYSICISTS HAVE MADE THEIR UNIVERSE, AND IF YOU DO NOT LIKE
 IT, YOU MUST MAKE YOUR OWN.
                               -- E. R. HARRISON IN "COSMOLOGY" (1980)
 Job cpu time:       0 days  0 hours  6 minutes 17.9 seconds.
 Elapsed time:       0 days  0 hours  0 minutes 48.6 seconds.
 File lengths (MBytes):  RWF=     96 Int=      0 D2E=      0 Chk=      3 Scr=      2
 Normal termination of Gaussian 16 at Mon Jun 20 18:56:15 2022.
