 Entering Gaussian System, Link 0=/opt/apps/Gaussian/G16C/g16/g16
 Input=/home/svss/projects/Project-Philicity/GS/hydrocarbon/set-1/GS/mol_22_hc/mol_22_hc.com
 Output=/home/svss/projects/Project-Philicity/GS/hydrocarbon/set-1/GS/mol_22_hc/mol_22_hc.log
 Initial command:
 /opt/apps/Gaussian/G16C/g16/l1.exe "/home/svss/projects/Project-Philicity/GS/hydrocarbon/set-1/Gau-213826.inp" -scrdir="/home/svss/projects/Project-Philicity/GS/hydrocarbon/set-1/"
 Entering Link 1 = /opt/apps/Gaussian/G16C/g16/l1.exe PID=    213827.
  
 Copyright (c) 1988-2019, Gaussian, Inc.  All Rights Reserved.
  
 This is part of the Gaussian(R) 16 program.  It is based on
 the Gaussian(R) 09 system (copyright 2009, Gaussian, Inc.),
 the Gaussian(R) 03 system (copyright 2003, Gaussian, Inc.),
 the Gaussian(R) 98 system (copyright 1998, Gaussian, Inc.),
 the Gaussian(R) 94 system (copyright 1995, Gaussian, Inc.),
 the Gaussian 92(TM) system (copyright 1992, Gaussian, Inc.),
 the Gaussian 90(TM) system (copyright 1990, Gaussian, Inc.),
 the Gaussian 88(TM) system (copyright 1988, Gaussian, Inc.),
 the Gaussian 86(TM) system (copyright 1986, Carnegie Mellon
 University), and the Gaussian 82(TM) system (copyright 1983,
 Carnegie Mellon University). Gaussian is a federally registered
 trademark of Gaussian, Inc.
  
 This software contains proprietary and confidential information,
 including trade secrets, belonging to Gaussian, Inc.
  
 This software is provided under written license and may be
 used, copied, transmitted, or stored only in accord with that
 written license.
  
 The following legend is applicable only to US Government
 contracts under FAR:
  
                    RESTRICTED RIGHTS LEGEND
  
 Use, reproduction and disclosure by the US Government is
 subject to restrictions as set forth in subparagraphs (a)
 and (c) of the Commercial Computer Software - Restricted
 Rights clause in FAR 52.227-19.
  
 Gaussian, Inc.
 340 Quinnipiac St., Bldg. 40, Wallingford CT 06492
  
  
 ---------------------------------------------------------------
 Warning -- This program may not be used in any manner that
 competes with the business of Gaussian, Inc. or will provide
 assistance to any competitor of Gaussian, Inc.  The licensee
 of this program is prohibited from giving any competitor of
 Gaussian, Inc. access to this program.  By using this program,
 the user acknowledges that Gaussian, Inc. is engaged in the
 business of creating and licensing software in the field of
 computational chemistry and represents and warrants to the
 licensee that it is not a competitor of Gaussian, Inc. and that
 it will not use this program in any manner prohibited above.
 ---------------------------------------------------------------
  

 Cite this work as:
 Gaussian 16, Revision C.01,
 M. J. Frisch, G. W. Trucks, H. B. Schlegel, G. E. Scuseria, 
 M. A. Robb, J. R. Cheeseman, G. Scalmani, V. Barone, 
 G. A. Petersson, H. Nakatsuji, X. Li, M. Caricato, A. V. Marenich, 
 J. Bloino, B. G. Janesko, R. Gomperts, B. Mennucci, H. P. Hratchian, 
 J. V. Ortiz, A. F. Izmaylov, J. L. Sonnenberg, D. Williams-Young, 
 F. Ding, F. Lipparini, F. Egidi, J. Goings, B. Peng, A. Petrone, 
 T. Henderson, D. Ranasinghe, V. G. Zakrzewski, J. Gao, N. Rega, 
 G. Zheng, W. Liang, M. Hada, M. Ehara, K. Toyota, R. Fukuda, 
 J. Hasegawa, M. Ishida, T. Nakajima, Y. Honda, O. Kitao, H. Nakai, 
 T. Vreven, K. Throssell, J. A. Montgomery, Jr., J. E. Peralta, 
 F. Ogliaro, M. J. Bearpark, J. J. Heyd, E. N. Brothers, K. N. Kudin, 
 V. N. Staroverov, T. A. Keith, R. Kobayashi, J. Normand, 
 K. Raghavachari, A. P. Rendell, J. C. Burant, S. S. Iyengar, 
 J. Tomasi, M. Cossi, J. M. Millam, M. Klene, C. Adamo, R. Cammi, 
 J. W. Ochterski, R. L. Martin, K. Morokuma, O. Farkas, 
 J. B. Foresman, and D. J. Fox, Gaussian, Inc., Wallingford CT, 2019.
 
 ******************************************
 Gaussian 16:  AS64L-G16RevC.01  3-Jul-2019
                20-Jun-2022 
 ******************************************
 %nproc=8
 Will use up to    8 processors via shared memory.
 %mem=96GB
 %chk=/home/svss/projects/Project-Philicity/GS/hydrocarbon/set-1/GS/mol_22_hc/mol
 _22_hc.chk
 -------------------------
 # opt freq M062X/def2tzvp
 -------------------------
 1/18=20,19=15,26=3,38=1/1,3;
 2/9=110,12=2,17=6,18=5,40=1/2;
 3/5=44,7=101,11=2,25=1,30=1,71=1,74=-55/1,2,3;
 4//1;
 5/5=2,38=5/2;
 6/7=2,8=2,9=2,10=2,28=1/1;
 7//1,2,3,16;
 1/18=20,19=15,26=3/3(2);
 2/9=110/2;
 99//99;
 2/9=110/2;
 3/5=44,7=101,11=2,25=1,30=1,71=1,74=-55/1,2,3;
 4/5=5,16=3,69=1/1;
 5/5=2,38=5/2;
 7//1,2,3,16;
 1/18=20,19=15,26=3/3(-5);
 2/9=110/2;
 6/7=2,8=2,9=2,10=2,19=2,28=1/1;
 99/9=1/99;
 ----------------------------------------------------------------------
 converted from /home/svss/projects/Project-Philicity/GS/hydrocarbon/se
 t-1/GS/mol_22_hc/mol_22_hc_cregen_best.xyz
 ----------------------------------------------------------------------
 Symbolic Z-matrix:
 Charge =  0 Multiplicity = 1
 C                    -3.27201  -0.00003  -0.01052 
 C                    -1.77589   0.00009   0.00833 
 C                    -1.06735  -1.1977    0.0059 
 C                     0.31263  -1.20708   0.00188 
 C                     1.01229  -0.00004   0.0001 
 C                     2.42512  -0.00003  -0.00233 
 N                     3.57192  -0.00003  -0.00525 
 C                     0.31274   1.20704   0.00191 
 C                    -1.06726   1.1978    0.00588 
 H                    -3.66756   0.88777   0.47716 
 H                    -3.62795  -0.00433  -1.04153 
 H                    -3.6674   -0.88397   0.48432 
 H                    -1.60646  -2.13406   0.00835 
 H                     0.85711  -2.13995   0.00165 
 H                     0.85731   2.13987   0.00164 
 H                    -1.60624   2.13425   0.00835 
 

 GradGradGradGradGradGradGradGradGradGradGradGradGradGradGradGradGradGrad
 Berny optimization.
 Initialization pass.
                           ----------------------------
                           !    Initial Parameters    !
                           ! (Angstroms and Degrees)  !
 --------------------------                            --------------------------
 ! Name  Definition              Value          Derivative Info.                !
 --------------------------------------------------------------------------------
 ! R1    R(1,2)                  1.4962         estimate D2E/DX2                !
 ! R2    R(1,10)                 1.0874         estimate D2E/DX2                !
 ! R3    R(1,11)                 1.0907         estimate D2E/DX2                !
 ! R4    R(1,12)                 1.0875         estimate D2E/DX2                !
 ! R5    R(2,3)                  1.3917         estimate D2E/DX2                !
 ! R6    R(2,9)                  1.3916         estimate D2E/DX2                !
 ! R7    R(3,4)                  1.38           estimate D2E/DX2                !
 ! R8    R(3,13)                 1.0805         estimate D2E/DX2                !
 ! R9    R(4,5)                  1.3952         estimate D2E/DX2                !
 ! R10   R(4,14)                 1.0801         estimate D2E/DX2                !
 ! R11   R(5,6)                  1.4128         estimate D2E/DX2                !
 ! R12   R(5,8)                  1.3951         estimate D2E/DX2                !
 ! R13   R(6,7)                  1.1468         estimate D2E/DX2                !
 ! R14   R(8,9)                  1.38           estimate D2E/DX2                !
 ! R15   R(8,15)                 1.0802         estimate D2E/DX2                !
 ! R16   R(9,16)                 1.0805         estimate D2E/DX2                !
 ! A1    A(2,1,10)             110.9778         estimate D2E/DX2                !
 ! A2    A(2,1,11)             109.7681         estimate D2E/DX2                !
 ! A3    A(2,1,12)             110.9711         estimate D2E/DX2                !
 ! A4    A(10,1,11)            107.9649         estimate D2E/DX2                !
 ! A5    A(10,1,12)            109.1052         estimate D2E/DX2                !
 ! A6    A(11,1,12)            107.9553         estimate D2E/DX2                !
 ! A7    A(1,2,3)              120.5972         estimate D2E/DX2                !
 ! A8    A(1,2,9)              120.6112         estimate D2E/DX2                !
 ! A9    A(3,2,9)              118.7829         estimate D2E/DX2                !
 ! A10   A(2,3,4)              120.9956         estimate D2E/DX2                !
 ! A11   A(2,3,13)             119.4624         estimate D2E/DX2                !
 ! A12   A(4,3,13)             119.542          estimate D2E/DX2                !
 ! A13   A(3,4,5)              119.7093         estimate D2E/DX2                !
 ! A14   A(3,4,14)             120.6598         estimate D2E/DX2                !
 ! A15   A(5,4,14)             119.6308         estimate D2E/DX2                !
 ! A16   A(4,5,6)              120.0992         estimate D2E/DX2                !
 ! A17   A(4,5,8)              119.8072         estimate D2E/DX2                !
 ! A18   A(6,5,8)              120.0936         estimate D2E/DX2                !
 ! A19   A(5,8,9)              119.7104         estimate D2E/DX2                !
 ! A20   A(5,8,15)             119.6303         estimate D2E/DX2                !
 ! A21   A(9,8,15)             120.6592         estimate D2E/DX2                !
 ! A22   A(2,9,8)              120.9946         estimate D2E/DX2                !
 ! A23   A(2,9,16)             119.4659         estimate D2E/DX2                !
 ! A24   A(8,9,16)             119.5395         estimate D2E/DX2                !
 ! A25   L(5,6,7,15,-1)        180.0004         estimate D2E/DX2                !
 ! A26   L(5,6,7,15,-2)        180.0587         estimate D2E/DX2                !
 ! D1    D(10,1,2,3)           151.5189         estimate D2E/DX2                !
 ! D2    D(10,1,2,9)           -29.5685         estimate D2E/DX2                !
 ! D3    D(11,1,2,3)           -89.2185         estimate D2E/DX2                !
 ! D4    D(11,1,2,9)            89.6941         estimate D2E/DX2                !
 ! D5    D(12,1,2,3)            30.028          estimate D2E/DX2                !
 ! D6    D(12,1,2,9)          -151.0595         estimate D2E/DX2                !
 ! D7    D(1,2,3,4)            178.9676         estimate D2E/DX2                !
 ! D8    D(1,2,3,13)            -1.1035         estimate D2E/DX2                !
 ! D9    D(9,2,3,4)              0.0354         estimate D2E/DX2                !
 ! D10   D(9,2,3,13)           179.9643         estimate D2E/DX2                !
 ! D11   D(1,2,9,8)           -178.9699         estimate D2E/DX2                !
 ! D12   D(1,2,9,16)             1.1059         estimate D2E/DX2                !
 ! D13   D(3,2,9,8)             -0.0379         estimate D2E/DX2                !
 ! D14   D(3,2,9,16)          -179.9621         estimate D2E/DX2                !
 ! D15   D(2,3,4,5)             -0.0054         estimate D2E/DX2                !
 ! D16   D(2,3,4,14)           179.8988         estimate D2E/DX2                !
 ! D17   D(13,3,4,5)          -179.9342         estimate D2E/DX2                !
 ! D18   D(13,3,4,14)           -0.03           estimate D2E/DX2                !
 ! D19   D(3,4,5,6)            179.9211         estimate D2E/DX2                !
 ! D20   D(3,4,5,8)             -0.0229         estimate D2E/DX2                !
 ! D21   D(14,4,5,6)             0.0159         estimate D2E/DX2                !
 ! D22   D(14,4,5,8)          -179.9281         estimate D2E/DX2                !
 ! D23   D(4,5,8,9)              0.0205         estimate D2E/DX2                !
 ! D24   D(4,5,8,15)           179.9319         estimate D2E/DX2                !
 ! D25   D(6,5,8,9)           -179.9235         estimate D2E/DX2                !
 ! D26   D(6,5,8,15)            -0.0121         estimate D2E/DX2                !
 ! D27   D(5,8,9,2)              0.0102         estimate D2E/DX2                !
 ! D28   D(5,8,9,16)           179.9344         estimate D2E/DX2                !
 ! D29   D(15,8,9,2)          -179.9003         estimate D2E/DX2                !
 ! D30   D(15,8,9,16)            0.0239         estimate D2E/DX2                !
 --------------------------------------------------------------------------------
 Trust Radius=3.00D-01 FncErr=1.00D-07 GrdErr=1.00D-06 EigMax=2.50D+02 EigMin=1.00D-04
 Number of steps in this run=     82 maximum allowed number of steps=    100.
 GradGradGradGradGradGradGradGradGradGradGradGradGradGradGradGradGradGrad

                          Input orientation:                          
 ---------------------------------------------------------------------
 Center     Atomic      Atomic             Coordinates (Angstroms)
 Number     Number       Type             X           Y           Z
 ---------------------------------------------------------------------
      1          6           0       -3.272010   -0.000030   -0.010520
      2          6           0       -1.775890    0.000090    0.008330
      3          6           0       -1.067350   -1.197700    0.005900
      4          6           0        0.312630   -1.207080    0.001880
      5          6           0        1.012290   -0.000040    0.000100
      6          6           0        2.425120   -0.000030   -0.002330
      7          7           0        3.571920   -0.000030   -0.005250
      8          6           0        0.312740    1.207040    0.001910
      9          6           0       -1.067260    1.197800    0.005880
     10          1           0       -3.667560    0.887770    0.477160
     11          1           0       -3.627950   -0.004330   -1.041530
     12          1           0       -3.667400   -0.883970    0.484320
     13          1           0       -1.606460   -2.134060    0.008350
     14          1           0        0.857110   -2.139950    0.001650
     15          1           0        0.857310    2.139870    0.001640
     16          1           0       -1.606240    2.134250    0.008350
 ---------------------------------------------------------------------
                    Distance matrix (angstroms):
                    1          2          3          4          5
     1  C    0.000000
     2  C    1.496239   0.000000
     3  C    2.509025   1.391667   0.000000
     4  C    3.782429   2.412305   1.380018   0.000000
     5  C    4.284313   2.788192   2.399860   1.395161   0.000000
     6  C    5.697136   4.201024   3.692131   2.433023   1.412832
     7  N    6.843932   5.347827   4.791384   3.475628   2.559636
     8  C    3.782539   2.412290   2.772623   2.414120   1.395140
     9  C    2.509181   1.391644   2.395500   2.772645   2.399871
    10  H    1.087419   2.141540   3.366358   4.522853   4.787148
    11  H    1.090731   2.128932   3.012958   4.250116   4.755716
    12  H    1.087451   2.141480   2.662249   4.022162   4.786993
    13  H    2.707120   2.140865   1.080470   2.131253   3.378159
    14  H    4.650703   3.393008   2.142755   1.080141   2.145530
    15  H    4.650871   3.392999   3.852753   3.390981   2.145515
    16  H    2.707452   2.140892   3.375248   3.853127   3.378159
                    6          7          8          9         10
     6  C    0.000000
     7  N    1.146804   0.000000
     8  C    2.432938   3.475532   0.000000
     9  C    3.692097   4.791337   1.380037   0.000000
    10  H    6.175666   7.309650   4.021266   2.660786   0.000000
    11  H    6.141629   7.274065   4.252672   3.016508   1.761769
    12  H    6.175514   7.309499   4.521787   3.365026   1.771754
    13  H    4.561561   5.600883   3.853092   3.375209   3.687733
    14  H    2.652909   3.456805   3.390970   3.852764   5.464964
    15  H    2.652775   3.456635   1.080152   2.142775   4.718932
    16  H    4.561483   5.600775   2.131254   1.080483   2.454085
                   11         12         13         14         15
    11  H    0.000000
    12  H    1.761687   0.000000
    13  H    3.118400   2.456979   0.000000
    14  H    5.075910   4.720344   2.463586   0.000000
    15  H    5.079700   5.463478   4.933223   4.279820   0.000000
    16  H    3.124593   3.685727   4.268310   4.933247   2.463566
                   16
    16  H    0.000000
 Stoichiometry    C8H7N
 Framework group  C1[X(C8H7N)]
 Deg. of freedom    42
 Full point group                 C1      NOp   1
 Largest Abelian subgroup         C1      NOp   1
 Largest concise Abelian subgroup C1      NOp   1
                         Standard orientation:                         
 ---------------------------------------------------------------------
 Center     Atomic      Atomic             Coordinates (Angstroms)
 Number     Number       Type             X           Y           Z
 ---------------------------------------------------------------------
      1          6           0        3.172399   -0.000010    0.008757
      2          6           0        1.676271    0.000103   -0.009489
      3          6           0        0.967738   -1.197690   -0.006774
      4          6           0       -0.412240   -1.207077   -0.002197
      5          6           0       -1.111905   -0.000040   -0.000134
      6          6           0       -2.524734   -0.000037    0.002867
      7          7           0       -3.671533   -0.000042    0.006250
      8          6           0       -0.412362    1.207043   -0.002225
      9          6           0        0.967637    1.197810   -0.006752
     10          1           0        3.567748    0.887793   -0.479082
     11          1           0        3.528755   -0.004309    1.039623
     12          1           0        3.567593   -0.883947   -0.486243
     13          1           0        1.506851   -2.134047   -0.009443
     14          1           0       -0.956716   -2.139949   -0.001749
     15          1           0       -0.956936    2.139871   -0.001734
     16          1           0        1.506611    2.134263   -0.009438
 ---------------------------------------------------------------------
 Rotational constants (GHZ):           5.5564464           0.9984643           0.8508289
 Standard basis: def2TZVP (5D, 7F)
 There are   366 symmetry adapted cartesian basis functions of A   symmetry.
 There are   321 symmetry adapted basis functions of A   symmetry.
   321 basis functions,   515 primitive gaussians,   366 cartesian basis functions
    31 alpha electrons       31 beta electrons
       nuclear repulsion energy       375.6861382368 Hartrees.
 NAtoms=   16 NActive=   16 NUniq=   16 SFac= 1.00D+00 NAtFMM=   60 NAOKFM=F Big=F
 Integral buffers will be    131072 words long.
 Raffenetti 2 integral format.
 Two-electron integral symmetry is turned on.
 One-electron integrals computed using PRISM.
   1 Symmetry operations used in ECPInt.
 ECPInt:  NShTT=    8128 NPrTT=   24972 LenC2=    7840 LenP2D=   19129.
 LDataN:  DoStor=T MaxTD1= 6 Len=  172
 NBasis=   321 RedAO= T EigKep=  7.27D-06  NBF=   321
 NBsUse=   321 1.00D-06 EigRej= -1.00D+00 NBFU=   321
 ExpMin= 9.52D-02 ExpMax= 1.97D+04 ExpMxC= 6.73D+02 IAcc=3 IRadAn=         5 AccDes= 0.00D+00
 Harris functional with IExCor= 1009 and IRadAn=       5 diagonalized for initial guess.
 HarFok:  IExCor= 1009 AccDes= 0.00D+00 IRadAn=         5 IDoV= 1 UseB2=F ITyADJ=14
 ICtDFT=  3500011 ScaDFX=  1.000000  1.000000  1.000000  1.000000
 FoFCou: FMM=F IPFlag=           0 FMFlag=      100000 FMFlg1=           0
         NFxFlg=           0 DoJE=T BraDBF=F KetDBF=T FulRan=T
         wScrn=  0.000000 ICntrl=       500 IOpCl=  0 I1Cent=   200000004 NGrid=           0
         NMat0=    1 NMatS0=      1 NMatT0=    0 NMatD0=    1 NMtDS0=    0 NMtDT0=    0
 Petite list used in FoFCou.
 Requested convergence on RMS density matrix=1.00D-08 within 128 cycles.
 Requested convergence on MAX density matrix=1.00D-06.
 Requested convergence on             energy=1.00D-06.
 No special actions if energy rises.
 Integral accuracy reduced to 1.0D-05 until final iterations.
 Initial convergence to 1.0D-05 achieved.  Increase integral accuracy.
 SCF Done:  E(RM062X) =  -363.785522925     A.U. after   14 cycles
            NFock= 14  Conv=0.76D-08     -V/T= 2.0046

 **********************************************************************

            Population analysis using the SCF Density.

 **********************************************************************

 Orbital symmetries:
       Occupied  (A) (A) (A) (A) (A) (A) (A) (A) (A) (A) (A) (A)
                 (A) (A) (A) (A) (A) (A) (A) (A) (A) (A) (A) (A)
                 (A) (A) (A) (A) (A) (A) (A)
       Virtual   (A) (A) (A) (A) (A) (A) (A) (A) (A) (A) (A) (A)
                 (A) (A) (A) (A) (A) (A) (A) (A) (A) (A) (A) (A)
                 (A) (A) (A) (A) (A) (A) (A) (A) (A) (A) (A) (A)
                 (A) (A) (A) (A) (A) (A) (A) (A) (A) (A) (A) (A)
                 (A) (A) (A) (A) (A) (A) (A) (A) (A) (A) (A) (A)
                 (A) (A) (A) (A) (A) (A) (A) (A) (A) (A) (A) (A)
                 (A) (A) (A) (A) (A) (A) (A) (A) (A) (A) (A) (A)
                 (A) (A) (A) (A) (A) (A) (A) (A) (A) (A) (A) (A)
                 (A) (A) (A) (A) (A) (A) (A) (A) (A) (A) (A) (A)
                 (A) (A) (A) (A) (A) (A) (A) (A) (A) (A) (A) (A)
                 (A) (A) (A) (A) (A) (A) (A) (A) (A) (A) (A) (A)
                 (A) (A) (A) (A) (A) (A) (A) (A) (A) (A) (A) (A)
                 (A) (A) (A) (A) (A) (A) (A) (A) (A) (A) (A) (A)
                 (A) (A) (A) (A) (A) (A) (A) (A) (A) (A) (A) (A)
                 (A) (A) (A) (A) (A) (A) (A) (A) (A) (A) (A) (A)
                 (A) (A) (A) (A) (A) (A) (A) (A) (A) (A) (A) (A)
                 (A) (A) (A) (A) (A) (A) (A) (A) (A) (A) (A) (A)
                 (A) (A) (A) (A) (A) (A) (A) (A) (A) (A) (A) (A)
                 (A) (A) (A) (A) (A) (A) (A) (A) (A) (A) (A) (A)
                 (A) (A) (A) (A) (A) (A) (A) (A) (A) (A) (A) (A)
                 (A) (A) (A) (A) (A) (A) (A) (A) (A) (A) (A) (A)
                 (A) (A) (A) (A) (A) (A) (A) (A) (A) (A) (A) (A)
                 (A) (A) (A) (A) (A) (A) (A) (A) (A) (A) (A) (A)
                 (A) (A) (A) (A) (A) (A) (A) (A) (A) (A) (A) (A)
                 (A) (A)
 The electronic state is 1-A.
 Alpha  occ. eigenvalues --  -14.74863 -10.58791 -10.57463 -10.57204 -10.57064
 Alpha  occ. eigenvalues --  -10.57061 -10.56069 -10.56066 -10.54920  -1.02268
 Alpha  occ. eigenvalues --   -0.99180  -0.90808  -0.87230  -0.81597  -0.72081
 Alpha  occ. eigenvalues --   -0.71233  -0.64651  -0.56689  -0.55899  -0.52222
 Alpha  occ. eigenvalues --   -0.51467  -0.51371  -0.47555  -0.47541  -0.44780
 Alpha  occ. eigenvalues --   -0.42995  -0.42882  -0.41382  -0.39964  -0.33565
 Alpha  occ. eigenvalues --   -0.31480
 Alpha virt. eigenvalues --   -0.02311  -0.00167   0.06218   0.07891   0.08290
 Alpha virt. eigenvalues --    0.09351   0.10331   0.11418   0.13182   0.14145
 Alpha virt. eigenvalues --    0.14739   0.15341   0.16544   0.17416   0.19011
 Alpha virt. eigenvalues --    0.20358   0.20963   0.24384   0.24890   0.25150
 Alpha virt. eigenvalues --    0.25756   0.27200   0.27635   0.28993   0.29190
 Alpha virt. eigenvalues --    0.31079   0.32771   0.34084   0.34284   0.35758
 Alpha virt. eigenvalues --    0.37140   0.37173   0.38049   0.38238   0.39088
 Alpha virt. eigenvalues --    0.41238   0.42872   0.43327   0.44264   0.44816
 Alpha virt. eigenvalues --    0.45706   0.46128   0.48312   0.50480   0.50700
 Alpha virt. eigenvalues --    0.51751   0.52326   0.53657   0.53797   0.55570
 Alpha virt. eigenvalues --    0.56308   0.60006   0.61008   0.61280   0.61999
 Alpha virt. eigenvalues --    0.65237   0.65553   0.68001   0.68824   0.71062
 Alpha virt. eigenvalues --    0.72202   0.73599   0.74026   0.76500   0.76578
 Alpha virt. eigenvalues --    0.77568   0.79977   0.82511   0.85072   0.86158
 Alpha virt. eigenvalues --    0.88494   0.89692   0.89951   0.90289   0.96030
 Alpha virt. eigenvalues --    0.96466   0.97380   0.99477   1.03136   1.03900
 Alpha virt. eigenvalues --    1.06785   1.09589   1.10184   1.13206   1.13817
 Alpha virt. eigenvalues --    1.14035   1.16683   1.18947   1.23330   1.24249
 Alpha virt. eigenvalues --    1.25201   1.25292   1.26607   1.28220   1.29310
 Alpha virt. eigenvalues --    1.31084   1.36616   1.37199   1.38297   1.39461
 Alpha virt. eigenvalues --    1.41801   1.41850   1.45179   1.49261   1.51903
 Alpha virt. eigenvalues --    1.52520   1.53791   1.54396   1.57077   1.58236
 Alpha virt. eigenvalues --    1.59638   1.59895   1.61153   1.61688   1.62970
 Alpha virt. eigenvalues --    1.64038   1.64249   1.65646   1.70215   1.72416
 Alpha virt. eigenvalues --    1.74992   1.77057   1.77654   1.85021   1.86200
 Alpha virt. eigenvalues --    1.87151   1.89455   1.91061   1.92516   1.97147
 Alpha virt. eigenvalues --    2.00098   2.00838   2.01046   2.03060   2.05090
 Alpha virt. eigenvalues --    2.09373   2.14262   2.16853   2.17319   2.18127
 Alpha virt. eigenvalues --    2.20582   2.20687   2.24703   2.26532   2.28838
 Alpha virt. eigenvalues --    2.31656   2.31718   2.35164   2.37173   2.40880
 Alpha virt. eigenvalues --    2.41961   2.45368   2.49534   2.50935   2.51447
 Alpha virt. eigenvalues --    2.51772   2.52956   2.55872   2.57033   2.60877
 Alpha virt. eigenvalues --    2.60909   2.62705   2.64697   2.64946   2.67260
 Alpha virt. eigenvalues --    2.69598   2.70781   2.70792   2.74744   2.75533
 Alpha virt. eigenvalues --    2.77530   2.77696   2.77984   2.82063   2.82795
 Alpha virt. eigenvalues --    2.84048   2.85796   2.89168   2.90922   2.91654
 Alpha virt. eigenvalues --    2.92897   2.94251   2.97999   2.98855   3.02523
 Alpha virt. eigenvalues --    3.03440   3.04112   3.05178   3.07678   3.08442
 Alpha virt. eigenvalues --    3.09048   3.10164   3.12797   3.13055   3.13304
 Alpha virt. eigenvalues --    3.14678   3.14984   3.17060   3.18520   3.20496
 Alpha virt. eigenvalues --    3.22850   3.24315   3.27438   3.27686   3.28913
 Alpha virt. eigenvalues --    3.30864   3.32901   3.34713   3.35776   3.36484
 Alpha virt. eigenvalues --    3.39051   3.39486   3.40704   3.41393   3.42882
 Alpha virt. eigenvalues --    3.45562   3.46931   3.48349   3.48697   3.54351
 Alpha virt. eigenvalues --    3.54521   3.59196   3.63926   3.64899   3.66726
 Alpha virt. eigenvalues --    3.73334   3.74273   3.75500   3.76998   3.77852
 Alpha virt. eigenvalues --    3.81979   3.84545   3.88560   3.93498   3.98376
 Alpha virt. eigenvalues --    3.99199   4.02178   4.02836   4.03936   4.07026
 Alpha virt. eigenvalues --    4.11674   4.13822   4.14148   4.15669   4.17616
 Alpha virt. eigenvalues --    4.20886   4.21262   4.22745   4.26518   4.28846
 Alpha virt. eigenvalues --    4.35211   4.40003   4.43240   4.49401   4.52131
 Alpha virt. eigenvalues --    4.54447   4.58790   4.59349   4.60331   4.62894
 Alpha virt. eigenvalues --    4.64522   4.67615   4.70271   4.79406   4.86628
 Alpha virt. eigenvalues --    4.87036   4.92795   4.96355   5.03170   5.11227
 Alpha virt. eigenvalues --    5.18479   5.18754   5.28405   5.36674   5.37149
 Alpha virt. eigenvalues --    5.43144   5.63565   5.65297   5.66268   5.87815
 Alpha virt. eigenvalues --    6.18258  22.21911  22.52318  22.78354  22.81830
 Alpha virt. eigenvalues --   22.84524  23.04325  23.42169  23.72667  32.23477
          Condensed to atoms (all electrons):
               1          2          3          4          5          6
     1  C    5.067958   0.266084  -0.064766   0.007709  -0.000752  -0.000092
     2  C    0.266084   4.929988   0.509068  -0.045342  -0.035152  -0.002860
     3  C   -0.064766   0.509068   4.999293   0.515078  -0.059744  -0.003243
     4  C    0.007709  -0.045342   0.515078   4.935319   0.527533  -0.055951
     5  C   -0.000752  -0.035152  -0.059744   0.527533   4.860766   0.130737
     6  C   -0.000092  -0.002860  -0.003243  -0.055951   0.130737   5.326949
     7  N   -0.000004  -0.000079  -0.000197   0.001083  -0.043417   0.938105
     8  C    0.007803  -0.045367  -0.034003  -0.046442   0.527545  -0.055898
     9  C   -0.064715   0.509527  -0.073305  -0.033966  -0.059718  -0.003282
    10  H    0.433753  -0.054447   0.012209  -0.000831  -0.000071   0.000001
    11  H    0.392822  -0.023675  -0.004616  -0.001103   0.000166  -0.000024
    12  H    0.433725  -0.054358  -0.016718   0.002451  -0.000071   0.000001
    13  H   -0.005239  -0.036838   0.408319  -0.027023   0.004996   0.000260
    14  H   -0.000186   0.003287  -0.030616   0.402688  -0.024523  -0.000017
    15  H   -0.000187   0.003286  -0.000060   0.005343  -0.024517  -0.000016
    16  H   -0.005335  -0.036780   0.006484  -0.000758   0.004994   0.000262
               7          8          9         10         11         12
     1  C   -0.000004   0.007803  -0.064715   0.433753   0.392822   0.433725
     2  C   -0.000079  -0.045367   0.509527  -0.054447  -0.023675  -0.054358
     3  C   -0.000197  -0.034003  -0.073305   0.012209  -0.004616  -0.016718
     4  C    0.001083  -0.046442  -0.033966  -0.000831  -0.001103   0.002451
     5  C   -0.043417   0.527545  -0.059718  -0.000071   0.000166  -0.000071
     6  C    0.938105  -0.055898  -0.003282   0.000001  -0.000024   0.000001
     7  N    6.072364   0.001086  -0.000197   0.000000  -0.000000   0.000000
     8  C    0.001086   4.935509   0.514808   0.002476  -0.001107  -0.000835
     9  C   -0.000197   0.514808   4.999132  -0.016727  -0.004554   0.012147
    10  H    0.000000   0.002476  -0.016727   0.526569  -0.026505  -0.025770
    11  H   -0.000000  -0.001107  -0.004554  -0.026505   0.527461  -0.026664
    12  H    0.000000  -0.000835   0.012147  -0.025770  -0.026664   0.526548
    13  H    0.000004  -0.000755   0.006465   0.000052   0.000530  -0.000044
    14  H    0.001285   0.005344  -0.000061   0.000007   0.000011  -0.000015
    15  H    0.001286   0.402669  -0.030600  -0.000015   0.000011   0.000007
    16  H    0.000004  -0.026988   0.408258  -0.000026   0.000528   0.000053
              13         14         15         16
     1  C   -0.005239  -0.000186  -0.000187  -0.005335
     2  C   -0.036838   0.003287   0.003286  -0.036780
     3  C    0.408319  -0.030616  -0.000060   0.006484
     4  C   -0.027023   0.402688   0.005343  -0.000758
     5  C    0.004996  -0.024523  -0.024517   0.004994
     6  C    0.000260  -0.000017  -0.000016   0.000262
     7  N    0.000004   0.001285   0.001286   0.000004
     8  C   -0.000755   0.005344   0.402669  -0.026988
     9  C    0.006465  -0.000061  -0.030600   0.408258
    10  H    0.000052   0.000007  -0.000015  -0.000026
    11  H    0.000530   0.000011   0.000011   0.000528
    12  H   -0.000044  -0.000015   0.000007   0.000053
    13  H    0.500258  -0.004195   0.000060  -0.000247
    14  H   -0.004195   0.479387  -0.000276   0.000060
    15  H    0.000060  -0.000276   0.479380  -0.004192
    16  H   -0.000247   0.000060  -0.004192   0.500332
 Mulliken charges:
               1
     1  C   -0.468581
     2  C    0.113660
     3  C   -0.163184
     4  C   -0.185790
     5  C    0.191228
     6  C   -0.274933
     7  N    0.028679
     8  C   -0.185845
     9  C   -0.163212
    10  H    0.149328
    11  H    0.166717
    12  H    0.149542
    13  H    0.153399
    14  H    0.167818
    15  H    0.167822
    16  H    0.153352
 Sum of Mulliken charges =  -0.00000
 Mulliken charges with hydrogens summed into heavy atoms:
               1
     1  C   -0.002994
     2  C    0.113660
     3  C   -0.009786
     4  C   -0.017972
     5  C    0.191228
     6  C   -0.274933
     7  N    0.028679
     8  C   -0.018023
     9  C   -0.009860
 Electronic spatial extent (au):  <R**2>=           1306.4466
 Charge=             -0.0000 electrons
 Dipole moment (field-independent basis, Debye):
    X=              5.2780    Y=             -0.0005    Z=              0.0394  Tot=              5.2781
 Quadrupole moment (field-independent basis, Debye-Ang):
   XX=            -66.3025   YY=            -46.2150   ZZ=            -55.2641
   XY=             -0.0020   XZ=              0.1508   YZ=              0.0001
 Traceless Quadrupole moment (field-independent basis, Debye-Ang):
   XX=            -10.3754   YY=              9.7122   ZZ=              0.6631
   XY=             -0.0020   XZ=              0.1508   YZ=              0.0001
 Octapole moment (field-independent basis, Debye-Ang**2):
  XXX=            100.0140  YYY=              0.0073  ZZZ=              0.8585  XYY=              2.1912
  XXY=             -0.0030  XXZ=              0.0953  XZZ=              1.3110  YZZ=             -0.0090
  YYZ=             -0.6527  XYZ=              0.0002
 Hexadecapole moment (field-independent basis, Debye-Ang**3):
 XXXX=          -1752.5904 YYYY=           -281.9738 ZZZZ=            -68.1688 XXXY=             -0.0116
 XXXZ=              1.0537 YYYX=              0.0258 YYYZ=              0.0010 ZZZX=              2.8860
 ZZZY=             -0.0011 XXYY=           -276.7389 XXZZ=           -250.5628 YYZZ=            -69.8964
 XXYZ=              0.0014 YYXZ=             -2.4413 ZZXY=             -0.0321
 N-N= 3.756861382368D+02 E-N=-1.595294702214D+03  KE= 3.621271847982D+02
   1 Symmetry operations used in ECPInt.
 ECPInt:  NShTT=    8128 NPrTT=   24972 LenC2=    7840 LenP2D=   19129.
 LDataN:  DoStor=T MaxTD1= 7 Len=  274
 Calling FoFJK, ICntrl=      2127 FMM=F ISym2X=0 I1Cent= 0 IOpClX= 0 NMat=1 NMatS=1 NMatT=0.
 ***** Axes restored to original set *****
 -------------------------------------------------------------------
 Center     Atomic                   Forces (Hartrees/Bohr)
 Number     Number              X              Y              Z
 -------------------------------------------------------------------
      1        6          -0.000481335   -0.000008522   -0.000997270
      2        6           0.000542562    0.000012516    0.000606097
      3        6          -0.000335313    0.000882185    0.000007055
      4        6           0.002119192    0.001295478   -0.000208238
      5        6          -0.015774283    0.000014070   -0.000044985
      6        6           0.013201771   -0.000007682    0.000022046
      7        7           0.003337056    0.000000878    0.000002526
      8        6           0.002136477   -0.001297502   -0.000218337
      9        6          -0.000358820   -0.000877454    0.000014652
     10        1          -0.001274351    0.000507350    0.000475345
     11        1          -0.001549577   -0.000001491   -0.000652514
     12        1          -0.001272442   -0.000498658    0.000477765
     13        1          -0.000974918   -0.001610320    0.000209904
     14        1           0.000830086   -0.000770444    0.000047382
     15        1           0.000826064    0.000764014    0.000050634
     16        1          -0.000972169    0.001595582    0.000207937
 -------------------------------------------------------------------
 Cartesian Forces:  Max     0.015774283 RMS     0.003119647

 GradGradGradGradGradGradGradGradGradGradGradGradGradGradGradGradGradGrad
 Berny optimization.
 FormGI is forming the generalized inverse of G from B-inverse, IUseBI=4.
 Internal  Forces:  Max     0.016538761 RMS     0.002241058
 Search for a local minimum.
 Step number   1 out of a maximum of   82
 All quantities printed in internal units (Hartrees-Bohrs-Radians)
 Mixed Optimization -- RFO/linear search
 Second derivative matrix not updated -- first step.
 ITU=  0
     Eigenvalues ---    0.00816   0.01640   0.02153   0.02178   0.02229
     Eigenvalues ---    0.02232   0.02264   0.02268   0.02293   0.02295
     Eigenvalues ---    0.05041   0.05041   0.07243   0.07451   0.16000
     Eigenvalues ---    0.16000   0.16000   0.16000   0.16000   0.16000
     Eigenvalues ---    0.16000   0.22000   0.22968   0.23999   0.24995
     Eigenvalues ---    0.25000   0.32775   0.34728   0.35109   0.35113
     Eigenvalues ---    0.35936   0.35938   0.35976   0.35977   0.42695
     Eigenvalues ---    0.43311   0.43558   0.46704   0.46753   0.47815
     Eigenvalues ---    0.49097   1.36834
 RFO step:  Lambda=-8.77579611D-04 EMin= 8.15701678D-03
 Linear search not attempted -- first point.
 Iteration  1 RMS(Cart)=  0.01207316 RMS(Int)=  0.00001516
 Iteration  2 RMS(Cart)=  0.00001675 RMS(Int)=  0.00000812
 Iteration  3 RMS(Cart)=  0.00000000 RMS(Int)=  0.00000812
 Variable       Old X    -DE/DX   Delta X   Delta X   Delta X     New X
                                 (Linear)    (Quad)   (Total)
    R1        2.82748   0.00459   0.00000   0.01396   0.01396   2.84144
    R2        2.05492   0.00109   0.00000   0.00310   0.00310   2.05802
    R3        2.06118   0.00112   0.00000   0.00322   0.00322   2.06441
    R4        2.05498   0.00109   0.00000   0.00308   0.00308   2.05807
    R5        2.62987   0.00176   0.00000   0.00393   0.00393   2.63380
    R6        2.62983   0.00174   0.00000   0.00390   0.00390   2.63373
    R7        2.60786   0.00333   0.00000   0.00678   0.00678   2.61463
    R8        2.04179   0.00188   0.00000   0.00523   0.00523   2.04702
    R9        2.63647  -0.00036   0.00000  -0.00099  -0.00099   2.63548
   R10        2.04117   0.00108   0.00000   0.00301   0.00301   2.04418
   R11        2.66987   0.01654   0.00000   0.03789   0.03789   2.70776
   R12        2.63643  -0.00037   0.00000  -0.00100  -0.00100   2.63543
   R13        2.16714   0.00334   0.00000   0.00244   0.00244   2.16958
   R14        2.60789   0.00335   0.00000   0.00681   0.00681   2.61470
   R15        2.04119   0.00108   0.00000   0.00298   0.00298   2.04418
   R16        2.04182   0.00187   0.00000   0.00519   0.00519   2.04700
    A1        1.93693   0.00080   0.00000   0.00458   0.00456   1.94149
    A2        1.91582   0.00150   0.00000   0.01008   0.01005   1.92587
    A3        1.93681   0.00080   0.00000   0.00459   0.00458   1.94139
    A4        1.88434  -0.00105   0.00000  -0.00577  -0.00580   1.87854
    A5        1.90425  -0.00112   0.00000  -0.00838  -0.00838   1.89587
    A6        1.88417  -0.00105   0.00000  -0.00576  -0.00579   1.87839
    A7        2.10482   0.00087   0.00000   0.00317   0.00317   2.10799
    A8        2.10506   0.00087   0.00000   0.00316   0.00315   2.10822
    A9        2.07315  -0.00174   0.00000  -0.00638  -0.00638   2.06677
   A10        2.11177   0.00052   0.00000   0.00257   0.00257   2.11434
   A11        2.08501  -0.00030   0.00000  -0.00155  -0.00155   2.08346
   A12        2.08640  -0.00022   0.00000  -0.00102  -0.00102   2.08538
   A13        2.08932   0.00055   0.00000   0.00185   0.00185   2.09117
   A14        2.10591   0.00006   0.00000   0.00116   0.00116   2.10707
   A15        2.08795  -0.00061   0.00000  -0.00301  -0.00301   2.08494
   A16        2.09613   0.00018   0.00000   0.00119   0.00119   2.09732
   A17        2.09103  -0.00038   0.00000  -0.00245  -0.00246   2.08857
   A18        2.09603   0.00020   0.00000   0.00126   0.00126   2.09729
   A19        2.08934   0.00055   0.00000   0.00184   0.00184   2.09118
   A20        2.08794  -0.00061   0.00000  -0.00301  -0.00301   2.08494
   A21        2.10590   0.00006   0.00000   0.00116   0.00116   2.10706
   A22        2.11175   0.00052   0.00000   0.00257   0.00257   2.11433
   A23        2.08507  -0.00031   0.00000  -0.00159  -0.00159   2.08349
   A24        2.08636  -0.00021   0.00000  -0.00099  -0.00099   2.08537
   A25        3.14160  -0.00000   0.00000  -0.00004  -0.00004   3.14156
   A26        3.14262  -0.00002   0.00000  -0.00039  -0.00039   3.14223
    D1        2.64450  -0.00012   0.00000  -0.00052  -0.00052   2.64398
    D2       -0.51607  -0.00020   0.00000  -0.00386  -0.00388  -0.51995
    D3       -1.55716   0.00004   0.00000   0.00165   0.00166  -1.55550
    D4        1.56546  -0.00004   0.00000  -0.00169  -0.00170   1.56376
    D5        0.52409   0.00020   0.00000   0.00385   0.00387   0.52795
    D6       -2.63649   0.00012   0.00000   0.00051   0.00051  -2.63598
    D7        3.12357  -0.00016   0.00000  -0.00759  -0.00759   3.11598
    D8       -0.01926  -0.00017   0.00000  -0.00829  -0.00828  -0.02754
    D9        0.00062  -0.00011   0.00000  -0.00441  -0.00441  -0.00379
   D10        3.14097  -0.00013   0.00000  -0.00510  -0.00510   3.13587
   D11       -3.12361   0.00016   0.00000   0.00765   0.00764  -3.11597
   D12        0.01930   0.00017   0.00000   0.00825   0.00825   0.02755
   D13       -0.00066   0.00012   0.00000   0.00446   0.00446   0.00380
   D14       -3.14093   0.00013   0.00000   0.00507   0.00507  -3.13587
   D15       -0.00009   0.00005   0.00000   0.00176   0.00177   0.00168
   D16        3.13983  -0.00001   0.00000  -0.00074  -0.00073   3.13909
   D17       -3.14044   0.00006   0.00000   0.00245   0.00246  -3.13798
   D18       -0.00052   0.00000   0.00000  -0.00004  -0.00004  -0.00057
   D19        3.14022  -0.00007   0.00000  -0.00287  -0.00287   3.13735
   D20       -0.00040   0.00002   0.00000   0.00091   0.00092   0.00052
   D21        0.00028  -0.00001   0.00000  -0.00040  -0.00040  -0.00012
   D22       -3.14034   0.00008   0.00000   0.00338   0.00338  -3.13695
   D23        0.00036  -0.00002   0.00000  -0.00086  -0.00086  -0.00051
   D24        3.14040  -0.00008   0.00000  -0.00344  -0.00345   3.13696
   D25       -3.14026   0.00007   0.00000   0.00292   0.00292  -3.13734
   D26       -0.00021   0.00001   0.00000   0.00033   0.00033   0.00012
   D27        0.00018  -0.00005   0.00000  -0.00187  -0.00187  -0.00170
   D28        3.14045  -0.00006   0.00000  -0.00247  -0.00248   3.13797
   D29       -3.13985   0.00001   0.00000   0.00075   0.00075  -3.13910
   D30        0.00042   0.00000   0.00000   0.00015   0.00014   0.00056
         Item               Value     Threshold  Converged?
 Maximum Force            0.016539     0.000450     NO 
 RMS     Force            0.002241     0.000300     NO 
 Maximum Displacement     0.049324     0.001800     NO 
 RMS     Displacement     0.012068     0.001200     NO 
 Predicted change in Energy=-4.399913D-04
 GradGradGradGradGradGradGradGradGradGradGradGradGradGradGradGradGradGrad

                          Input orientation:                          
 ---------------------------------------------------------------------
 Center     Atomic      Atomic             Coordinates (Angstroms)
 Number     Number       Type             X           Y           Z
 ---------------------------------------------------------------------
      1          6           0       -3.284222   -0.000031   -0.014432
      2          6           0       -1.780804    0.000090    0.010462
      3          6           0       -1.067373   -1.197214    0.008902
      4          6           0        0.316183   -1.205756    0.001386
      5          6           0        1.017049   -0.000025   -0.002742
      6          6           0        2.449930   -0.000057   -0.005269
      7          7           0        3.598021   -0.000048   -0.007877
      8          6           0        0.316286    1.205735    0.001372
      9          6           0       -1.067306    1.197312    0.008901
     10          1           0       -3.686952    0.886453    0.473425
     11          1           0       -3.647004   -0.004296   -1.044863
     12          1           0       -3.686830   -0.882644    0.480545
     13          1           0       -1.606297   -2.136850    0.015483
     14          1           0        0.863140   -2.139019    0.002544
     15          1           0        0.863314    2.138956    0.002519
     16          1           0       -1.606135    2.136994    0.015484
 ---------------------------------------------------------------------
                    Distance matrix (angstroms):
                    1          2          3          4          5
     1  C    0.000000
     2  C    1.503624   0.000000
     3  C    2.519566   1.393745   0.000000
     4  C    3.796965   2.418988   1.383603   0.000000
     5  C    4.301286   2.797884   2.403790   1.394638   0.000000
     6  C    5.734159   4.230764   3.715482   2.450843   1.432884
     7  N    6.882246   5.378856   4.816574   3.496323   2.580977
     8  C    3.797075   2.418977   2.772856   2.411491   1.394612
     9  C    2.519700   1.393708   2.394526   2.772875   2.403807
    10  H    1.089059   2.152528   3.379297   4.541504   4.810426
    11  H    1.092437   2.143930   3.031167   4.271417   4.779061
    12  H    1.089083   2.152471   2.680104   4.044516   4.810307
    13  H    2.717043   2.144059   1.083235   2.136134   3.383533
    14  H    4.666494   3.400925   2.148003   1.081731   2.144531
    15  H    4.666648   3.400907   3.854559   3.389167   2.144505
    16  H    2.717304   2.144036   3.377462   3.856097   3.383530
                    6          7          8          9         10
     6  C    0.000000
     7  N    1.148093   0.000000
     8  C    2.450799   3.496252   0.000000
     9  C    3.715487   4.816558   1.383639   0.000000
    10  H    6.219033   7.354479   4.043599   2.678611   0.000000
    11  H    6.184932   7.318863   4.273927   3.034653   1.760746
    12  H    6.218907   7.354358   4.540470   3.377953   1.769111
    13  H    4.584681   5.625957   3.856086   3.377453   3.698540
    14  H    2.663292   3.472014   3.389164   3.854577   5.484391
    15  H    2.663229   3.471897   1.081731   2.148029   4.742935
    16  H    4.584657   5.625898   2.136152   1.083228   2.470498
                   11         12         13         14         15
    11  H    0.000000
    12  H    1.760668   0.000000
    13  H    3.136337   2.473445   0.000000
    14  H    5.098579   4.744385   2.469472   0.000000
    15  H    5.102304   5.482917   4.937779   4.277975   0.000000
    16  H    3.142388   3.696455   4.273844   4.937790   2.469484
                   16
    16  H    0.000000
 Stoichiometry    C8H7N
 Framework group  C1[X(C8H7N)]
 Deg. of freedom    42
 Full point group                 C1      NOp   1
 Largest Abelian subgroup         C1      NOp   1
 Largest concise Abelian subgroup C1      NOp   1
                         Standard orientation:                         
 ---------------------------------------------------------------------
 Center     Atomic      Atomic             Coordinates (Angstroms)
 Number     Number       Type             X           Y           Z
 ---------------------------------------------------------------------
      1          6           0        3.188703   -0.000025    0.013488
      2          6           0        1.685285    0.000096   -0.011406
      3          6           0        0.971854   -1.197208   -0.009846
      4          6           0       -0.411703   -1.205749   -0.002330
      5          6           0       -1.112567   -0.000018    0.001798
      6          6           0       -2.545449   -0.000049    0.004325
      7          7           0       -3.693540   -0.000040    0.006934
      8          6           0       -0.411804    1.205742   -0.002316
      9          6           0        0.971788    1.197318   -0.009845
     10          1           0        3.591434    0.886458   -0.474369
     11          1           0        3.551486   -0.004291    1.043919
     12          1           0        3.591311   -0.882639   -0.481489
     13          1           0        1.510778   -2.136844   -0.016427
     14          1           0       -0.958659   -2.139012   -0.003488
     15          1           0       -0.958832    2.138963   -0.003463
     16          1           0        1.510617    2.137000   -0.016428
 ---------------------------------------------------------------------
 Rotational constants (GHZ):           5.5619171           0.9870332           0.8426498
 Standard basis: def2TZVP (5D, 7F)
 There are   366 symmetry adapted cartesian basis functions of A   symmetry.
 There are   321 symmetry adapted basis functions of A   symmetry.
   321 basis functions,   515 primitive gaussians,   366 cartesian basis functions
    31 alpha electrons       31 beta electrons
       nuclear repulsion energy       374.4080008736 Hartrees.
 NAtoms=   16 NActive=   16 NUniq=   16 SFac= 1.00D+00 NAtFMM=   60 NAOKFM=F Big=F
 Integral buffers will be    131072 words long.
 Raffenetti 2 integral format.
 Two-electron integral symmetry is turned on.
 One-electron integrals computed using PRISM.
   1 Symmetry operations used in ECPInt.
 ECPInt:  NShTT=    8128 NPrTT=   24972 LenC2=    7839 LenP2D=   19108.
 LDataN:  DoStor=T MaxTD1= 6 Len=  172
 NBasis=   321 RedAO= T EigKep=  7.34D-06  NBF=   321
 NBsUse=   321 1.00D-06 EigRej= -1.00D+00 NBFU=   321
 Initial guess from the checkpoint file:  "/home/svss/projects/Project-Philicity/GS/hydrocarbon/set-1/GS/mol_22_hc/mol_22_hc.chk"
 B after Tr=     0.000000    0.000000    0.000000
         Rot=    1.000000   -0.000001    0.000027    0.000002 Ang=  -0.00 deg.
 ExpMin= 9.52D-02 ExpMax= 1.97D+04 ExpMxC= 6.73D+02 IAcc=3 IRadAn=         5 AccDes= 0.00D+00
 Harris functional with IExCor= 1009 and IRadAn=       5 diagonalized for initial guess.
 HarFok:  IExCor= 1009 AccDes= 0.00D+00 IRadAn=         5 IDoV= 1 UseB2=F ITyADJ=14
 ICtDFT=  3500011 ScaDFX=  1.000000  1.000000  1.000000  1.000000
 FoFCou: FMM=F IPFlag=           0 FMFlag=      100000 FMFlg1=           0
         NFxFlg=           0 DoJE=T BraDBF=F KetDBF=T FulRan=T
         wScrn=  0.000000 ICntrl=       500 IOpCl=  0 I1Cent=   200000004 NGrid=           0
         NMat0=    1 NMatS0=      1 NMatT0=    0 NMatD0=    1 NMtDS0=    0 NMtDT0=    0
 Petite list used in FoFCou.
 Requested convergence on RMS density matrix=1.00D-08 within 128 cycles.
 Requested convergence on MAX density matrix=1.00D-06.
 Requested convergence on             energy=1.00D-06.
 No special actions if energy rises.
 Integral accuracy reduced to 1.0D-05 until final iterations.
 Initial convergence to 1.0D-05 achieved.  Increase integral accuracy.
 SCF Done:  E(RM062X) =  -363.785964499     A.U. after   14 cycles
            NFock= 14  Conv=0.45D-08     -V/T= 2.0049
   1 Symmetry operations used in ECPInt.
 ECPInt:  NShTT=    8128 NPrTT=   24972 LenC2=    7839 LenP2D=   19108.
 LDataN:  DoStor=T MaxTD1= 7 Len=  274
 Calling FoFJK, ICntrl=      2127 FMM=F ISym2X=0 I1Cent= 0 IOpClX= 0 NMat=1 NMatS=1 NMatT=0.
 ***** Axes restored to original set *****
 -------------------------------------------------------------------
 Center     Atomic                   Forces (Hartrees/Bohr)
 Number     Number              X              Y              Z
 -------------------------------------------------------------------
      1        6           0.000881917   -0.000003679   -0.000357772
      2        6          -0.000146805    0.000002578   -0.000063519
      3        6          -0.000167189    0.000314347   -0.000048984
      4        6           0.001014226    0.000223340    0.000066703
      5        6          -0.003875830    0.000007167    0.000043300
      6        6           0.002002356    0.000000396   -0.000078639
      7        7          -0.000611899   -0.000001164    0.000015908
      8        6           0.001020485   -0.000229087    0.000067937
      9        6          -0.000171126   -0.000317701   -0.000050392
     10        1           0.000013790    0.000077379    0.000140340
     11        1           0.000094127    0.000001336    0.000079656
     12        1           0.000013240   -0.000075300    0.000140607
     13        1           0.000151100   -0.000038472    0.000032304
     14        1          -0.000184170   -0.000065443   -0.000009795
     15        1          -0.000184628    0.000065854   -0.000009651
     16        1           0.000150407    0.000038449    0.000031997
 -------------------------------------------------------------------
 Cartesian Forces:  Max     0.003875830 RMS     0.000691963

 GradGradGradGradGradGradGradGradGradGradGradGradGradGradGradGradGradGrad
 Berny optimization.
 Using GEDIIS/GDIIS optimizer.
 FormGI is forming the generalized inverse of G from B-inverse, IUseBI=4.
 Internal  Forces:  Max     0.001390567 RMS     0.000337222
 Search for a local minimum.
 Step number   2 out of a maximum of   82
 All quantities printed in internal units (Hartrees-Bohrs-Radians)
 Mixed Optimization -- En-DIIS/RFO-DIIS
 Update second derivatives using D2CorX and points    1    2
 DE= -4.42D-04 DEPred=-4.40D-04 R= 1.00D+00
 TightC=F SS=  1.41D+00  RLast= 5.20D-02 DXNew= 5.0454D-01 1.5596D-01
 Trust test= 1.00D+00 RLast= 5.20D-02 DXMaxT set to 3.00D-01
 ITU=  1  0
 Use linear search instead of GDIIS.
     Eigenvalues ---    0.00816   0.01638   0.02154   0.02176   0.02231
     Eigenvalues ---    0.02232   0.02265   0.02268   0.02293   0.02295
     Eigenvalues ---    0.05041   0.05041   0.07182   0.07358   0.15905
     Eigenvalues ---    0.16000   0.16000   0.16000   0.16000   0.16000
     Eigenvalues ---    0.16214   0.22000   0.22824   0.24476   0.24994
     Eigenvalues ---    0.25000   0.33564   0.34772   0.35043   0.35111
     Eigenvalues ---    0.35937   0.35963   0.35977   0.36119   0.38718
     Eigenvalues ---    0.43005   0.43294   0.46703   0.47483   0.47818
     Eigenvalues ---    0.50443   1.37405
 RFO step:  Lambda=-2.53467504D-05 EMin= 8.15701648D-03
 Quartic linear search produced a step of  0.02023.
 Iteration  1 RMS(Cart)=  0.00153911 RMS(Int)=  0.00000148
 Iteration  2 RMS(Cart)=  0.00000175 RMS(Int)=  0.00000051
 Iteration  3 RMS(Cart)=  0.00000000 RMS(Int)=  0.00000051
 Variable       Old X    -DE/DX   Delta X   Delta X   Delta X     New X
                                 (Linear)    (Quad)   (Total)
    R1        2.84144  -0.00100   0.00028  -0.00299  -0.00271   2.83873
    R2        2.05802   0.00012   0.00006   0.00038   0.00044   2.05847
    R3        2.06441  -0.00011   0.00007  -0.00028  -0.00022   2.06419
    R4        2.05807   0.00012   0.00006   0.00038   0.00044   2.05851
    R5        2.63380  -0.00031   0.00008  -0.00061  -0.00053   2.63327
    R6        2.63373  -0.00032   0.00008  -0.00061  -0.00053   2.63319
    R7        2.61463  -0.00041   0.00014  -0.00079  -0.00065   2.61398
    R8        2.04702  -0.00004   0.00011  -0.00007   0.00004   2.04705
    R9        2.63548  -0.00090  -0.00002  -0.00203  -0.00205   2.63343
   R10        2.04418  -0.00004   0.00006  -0.00008  -0.00002   2.04416
   R11        2.70776   0.00139   0.00077   0.00361   0.00437   2.71213
   R12        2.63543  -0.00091  -0.00002  -0.00205  -0.00207   2.63337
   R13        2.16958  -0.00061   0.00005  -0.00043  -0.00039   2.16920
   R14        2.61470  -0.00041   0.00014  -0.00078  -0.00065   2.61405
   R15        2.04418  -0.00004   0.00006  -0.00008  -0.00002   2.04416
   R16        2.04700  -0.00004   0.00010  -0.00007   0.00004   2.04704
    A1        1.94149  -0.00008   0.00009  -0.00058  -0.00049   1.94100
    A2        1.92587  -0.00003   0.00020   0.00015   0.00035   1.92622
    A3        1.94139  -0.00008   0.00009  -0.00056  -0.00047   1.94092
    A4        1.87854   0.00009  -0.00012   0.00077   0.00065   1.87919
    A5        1.89587   0.00001  -0.00017  -0.00047  -0.00064   1.89522
    A6        1.87839   0.00009  -0.00012   0.00078   0.00066   1.87905
    A7        2.10799  -0.00014   0.00006  -0.00067  -0.00060   2.10738
    A8        2.10822  -0.00014   0.00006  -0.00067  -0.00061   2.10761
    A9        2.06677   0.00028  -0.00013   0.00136   0.00123   2.06801
   A10        2.11434  -0.00016   0.00005  -0.00050  -0.00045   2.11389
   A11        2.08346   0.00023  -0.00003   0.00123   0.00120   2.08466
   A12        2.08538  -0.00007  -0.00002  -0.00072  -0.00075   2.08464
   A13        2.09117  -0.00048   0.00004  -0.00216  -0.00213   2.08904
   A14        2.10707   0.00004   0.00002  -0.00015  -0.00012   2.10695
   A15        2.08494   0.00044  -0.00006   0.00231   0.00225   2.08719
   A16        2.09732  -0.00050   0.00002  -0.00199  -0.00197   2.09535
   A17        2.08857   0.00099  -0.00005   0.00397   0.00392   2.09249
   A18        2.09729  -0.00049   0.00003  -0.00197  -0.00195   2.09534
   A19        2.09118  -0.00048   0.00004  -0.00217  -0.00213   2.08905
   A20        2.08494   0.00044  -0.00006   0.00232   0.00226   2.08720
   A21        2.10706   0.00004   0.00002  -0.00015  -0.00012   2.10693
   A22        2.11433  -0.00016   0.00005  -0.00050  -0.00045   2.11388
   A23        2.08349   0.00023  -0.00003   0.00122   0.00119   2.08468
   A24        2.08537  -0.00007  -0.00002  -0.00072  -0.00074   2.08463
   A25        3.14156   0.00000  -0.00000   0.00005   0.00005   3.14161
   A26        3.14223  -0.00003  -0.00001  -0.00054  -0.00054   3.14168
    D1        2.64398  -0.00006  -0.00001  -0.00138  -0.00139   2.64260
    D2       -0.51995  -0.00003  -0.00008  -0.00007  -0.00015  -0.52010
    D3       -1.55550  -0.00001   0.00003  -0.00069  -0.00066  -1.55615
    D4        1.56376   0.00001  -0.00003   0.00061   0.00058   1.56434
    D5        0.52795   0.00003   0.00008   0.00002   0.00010   0.52805
    D6       -2.63598   0.00006   0.00001   0.00132   0.00133  -2.63465
    D7        3.11598   0.00001  -0.00015   0.00067   0.00052   3.11650
    D8       -0.02754  -0.00000  -0.00017  -0.00001  -0.00018  -0.02772
    D9       -0.00379  -0.00001  -0.00009  -0.00057  -0.00066  -0.00445
   D10        3.13587  -0.00002  -0.00010  -0.00126  -0.00136   3.13451
   D11       -3.11597  -0.00001   0.00015  -0.00069  -0.00053  -3.11650
   D12        0.02755   0.00000   0.00017   0.00001   0.00017   0.02772
   D13        0.00380   0.00001   0.00009   0.00056   0.00065   0.00445
   D14       -3.13587   0.00002   0.00010   0.00126   0.00136  -3.13451
   D15        0.00168  -0.00001   0.00004  -0.00028  -0.00024   0.00144
   D16        3.13909   0.00001  -0.00001   0.00056   0.00054   3.13964
   D17       -3.13798   0.00001   0.00005   0.00041   0.00046  -3.13753
   D18       -0.00057   0.00003  -0.00000   0.00124   0.00124   0.00068
   D19        3.13735   0.00004  -0.00006   0.00171   0.00165   3.13900
   D20        0.00052   0.00002   0.00002   0.00115   0.00117   0.00169
   D21       -0.00012   0.00002  -0.00001   0.00089   0.00088   0.00076
   D22       -3.13695   0.00000   0.00007   0.00033   0.00040  -3.13656
   D23       -0.00051  -0.00002  -0.00002  -0.00116  -0.00118  -0.00169
   D24        3.13696  -0.00000  -0.00007  -0.00033  -0.00040   3.13656
   D25       -3.13734  -0.00004   0.00006  -0.00172  -0.00166  -3.13900
   D26        0.00012  -0.00002   0.00001  -0.00089  -0.00088  -0.00076
   D27       -0.00170   0.00001  -0.00004   0.00031   0.00027  -0.00143
   D28        3.13797  -0.00001  -0.00005  -0.00039  -0.00044   3.13753
   D29       -3.13910  -0.00001   0.00002  -0.00055  -0.00053  -3.13964
   D30        0.00056  -0.00003   0.00000  -0.00124  -0.00124  -0.00068
         Item               Value     Threshold  Converged?
 Maximum Force            0.001391     0.000450     NO 
 RMS     Force            0.000337     0.000300     NO 
 Maximum Displacement     0.006672     0.001800     NO 
 RMS     Displacement     0.001539     0.001200     NO 
 Predicted change in Energy=-1.283068D-05
 GradGradGradGradGradGradGradGradGradGradGradGradGradGradGradGradGradGrad

                          Input orientation:                          
 ---------------------------------------------------------------------
 Center     Atomic      Atomic             Coordinates (Angstroms)
 Number     Number       Type             X           Y           Z
 ---------------------------------------------------------------------
      1          6           0       -3.282180   -0.000036   -0.015335
      2          6           0       -1.780198    0.000086    0.009666
      3          6           0       -1.067641   -1.197415    0.008897
      4          6           0        0.315572   -1.206176    0.002115
      5          6           0        1.013518   -0.000009   -0.002336
      6          6           0        2.448711   -0.000048   -0.006157
      7          7           0        3.596597   -0.000103   -0.009295
      8          6           0        0.315665    1.206173    0.002101
      9          6           0       -1.067588    1.197508    0.008882
     10          1           0       -3.684558    0.886429    0.473370
     11          1           0       -3.645197   -0.004264   -1.045563
     12          1           0       -3.684452   -0.882638    0.480446
     13          1           0       -1.606024   -2.137378    0.016175
     14          1           0        0.862259   -2.139588    0.003377
     15          1           0        0.862408    2.139551    0.003352
     16          1           0       -1.605892    2.137508    0.016145
 ---------------------------------------------------------------------
                    Distance matrix (angstroms):
                    1          2          3          4          5
     1  C    0.000000
     2  C    1.502191   0.000000
     3  C    2.517635   1.393465   0.000000
     4  C    3.794588   2.418134   1.383257   0.000000
     5  C    4.295718   2.793741   2.401069   1.393552   0.000000
     6  C    5.730899   4.228939   3.714653   2.450530   1.435198
     7  N    6.878779   5.376828   4.815496   3.495693   2.583088
     8  C    3.794698   2.418128   2.773232   2.412349   1.393518
     9  C    2.517760   1.393425   2.394923   2.773243   2.401078
    10  H    1.089293   2.151096   3.377335   4.538955   4.804579
    11  H    1.092323   2.142837   3.029734   4.269650   4.774093
    12  H    1.089315   2.151051   2.677525   4.041493   4.804480
    13  H    2.716381   2.144559   1.083255   2.135384   3.380930
    14  H    4.664162   3.400120   2.147611   1.081723   2.144926
    15  H    4.664310   3.400105   3.854927   3.390121   2.144897
    16  H    2.716621   2.144528   3.378088   3.856481   3.380921
                    6          7          8          9         10
     6  C    0.000000
     7  N    1.147890   0.000000
     8  C    2.450495   3.495675   0.000000
     9  C    3.714664   4.815519   1.383297   0.000000
    10  H    6.215527   7.350790   4.040558   2.676013   0.000000
    11  H    6.181917   7.315562   4.272140   3.033179   1.761261
    12  H    6.215419   7.350672   4.537937   3.375997   1.769081
    13  H    4.583618   5.624576   3.856478   3.378081   3.697667
    14  H    2.663560   3.471909   3.390115   3.854938   5.481898
    15  H    2.663519   3.471897   1.081723   2.147641   4.739844
    16  H    4.583607   5.624581   2.135407   1.083247   2.468827
                   11         12         13         14         15
    11  H    0.000000
    12  H    1.761189   0.000000
    13  H    3.136191   2.471798   0.000000
    14  H    5.096768   4.741318   2.468317   0.000000
    15  H    5.100457   5.480436   4.938162   4.279139   0.000000
    16  H    3.142162   3.695574   4.274887   4.938166   2.468333
                   16
    16  H    0.000000
 Stoichiometry    C8H7N
 Framework group  C1[X(C8H7N)]
 Deg. of freedom    42
 Full point group                 C1      NOp   1
 Largest Abelian subgroup         C1      NOp   1
 Largest concise Abelian subgroup C1      NOp   1
                         Standard orientation:                         
 ---------------------------------------------------------------------
 Center     Atomic      Atomic             Coordinates (Angstroms)
 Number     Number       Type             X           Y           Z
 ---------------------------------------------------------------------
      1          6           0        3.186210   -0.000045    0.014193
      2          6           0        1.684228    0.000085   -0.010807
      3          6           0        0.971664   -1.197411   -0.010039
      4          6           0       -0.411549   -1.206164   -0.003256
      5          6           0       -1.109488    0.000007    0.001195
      6          6           0       -2.544681   -0.000023    0.005016
      7          7           0       -3.692566   -0.000071    0.008154
      8          6           0       -0.411627    1.206185   -0.003243
      9          6           0        0.971626    1.197512   -0.010023
     10          1           0        3.588593    0.886417   -0.474511
     11          1           0        3.549227   -0.004276    1.044421
     12          1           0        3.588477   -0.882650   -0.481588
     13          1           0        1.510041   -2.137378   -0.017316
     14          1           0       -0.958242   -2.139572   -0.004519
     15          1           0       -0.958365    2.139567   -0.004493
     16          1           0        1.509935    2.137509   -0.017287
 ---------------------------------------------------------------------
 Rotational constants (GHZ):           5.5590025           0.9880641           0.8433394
 Standard basis: def2TZVP (5D, 7F)
 There are   366 symmetry adapted cartesian basis functions of A   symmetry.
 There are   321 symmetry adapted basis functions of A   symmetry.
   321 basis functions,   515 primitive gaussians,   366 cartesian basis functions
    31 alpha electrons       31 beta electrons
       nuclear repulsion energy       374.5114370316 Hartrees.
 NAtoms=   16 NActive=   16 NUniq=   16 SFac= 1.00D+00 NAtFMM=   60 NAOKFM=F Big=F
 Integral buffers will be    131072 words long.
 Raffenetti 2 integral format.
 Two-electron integral symmetry is turned on.
 One-electron integrals computed using PRISM.
   1 Symmetry operations used in ECPInt.
 ECPInt:  NShTT=    8128 NPrTT=   24972 LenC2=    7839 LenP2D=   19106.
 LDataN:  DoStor=T MaxTD1= 6 Len=  172
 NBasis=   321 RedAO= T EigKep=  7.33D-06  NBF=   321
 NBsUse=   321 1.00D-06 EigRej= -1.00D+00 NBFU=   321
 Initial guess from the checkpoint file:  "/home/svss/projects/Project-Philicity/GS/hydrocarbon/set-1/GS/mol_22_hc/mol_22_hc.chk"
 B after Tr=    -0.000000   -0.000000   -0.000000
         Rot=    1.000000   -0.000001   -0.000029    0.000002 Ang=  -0.00 deg.
 Requested convergence on RMS density matrix=1.00D-08 within 128 cycles.
 Requested convergence on MAX density matrix=1.00D-06.
 Requested convergence on             energy=1.00D-06.
 No special actions if energy rises.
 SCF Done:  E(RM062X) =  -363.785978657     A.U. after    8 cycles
            NFock=  8  Conv=0.80D-08     -V/T= 2.0049
   1 Symmetry operations used in ECPInt.
 ECPInt:  NShTT=    8128 NPrTT=   24972 LenC2=    7839 LenP2D=   19106.
 LDataN:  DoStor=T MaxTD1= 7 Len=  274
 Calling FoFJK, ICntrl=      2127 FMM=F ISym2X=0 I1Cent= 0 IOpClX= 0 NMat=1 NMatS=1 NMatT=0.
 ***** Axes restored to original set *****
 -------------------------------------------------------------------
 Center     Atomic                   Forces (Hartrees/Bohr)
 Number     Number              X              Y              Z
 -------------------------------------------------------------------
      1        6           0.000061182   -0.000000323   -0.000042705
      2        6          -0.000014339    0.000000981    0.000021365
      3        6          -0.000205547    0.000042501   -0.000003697
      4        6           0.000474276   -0.000082381   -0.000016908
      5        6          -0.000527723    0.000004271    0.000009201
      6        6           0.000256370   -0.000002631    0.000022142
      7        7          -0.000182226    0.000000750   -0.000013358
      8        6           0.000475994    0.000079397   -0.000016979
      9        6          -0.000207665   -0.000043958   -0.000004185
     10        1          -0.000016640   -0.000027576   -0.000000700
     11        1           0.000001795    0.000000555    0.000043670
     12        1          -0.000016487    0.000027473   -0.000001294
     13        1           0.000011585    0.000054742   -0.000000821
     14        1          -0.000060755    0.000054476    0.000002499
     15        1          -0.000061187   -0.000053991    0.000002593
     16        1           0.000011366   -0.000054286   -0.000000823
 -------------------------------------------------------------------
 Cartesian Forces:  Max     0.000527723 RMS     0.000141588

 GradGradGradGradGradGradGradGradGradGradGradGradGradGradGradGradGradGrad
 Berny optimization.
 Using GEDIIS/GDIIS optimizer.
 FormGI is forming the generalized inverse of G from B-inverse, IUseBI=4.
 Internal  Forces:  Max     0.000191295 RMS     0.000061409
 Search for a local minimum.
 Step number   3 out of a maximum of   82
 All quantities printed in internal units (Hartrees-Bohrs-Radians)
 Mixed Optimization -- En-DIIS/RFO-DIIS
 Swapping is turned off.
 Update second derivatives using D2CorX and points    1    2    3
 DE= -1.42D-05 DEPred=-1.28D-05 R= 1.10D+00
 TightC=F SS=  1.41D+00  RLast= 1.06D-02 DXNew= 5.0454D-01 3.1753D-02
 Trust test= 1.10D+00 RLast= 1.06D-02 DXMaxT set to 3.00D-01
 ITU=  1  1  0
     Eigenvalues ---    0.00816   0.01642   0.02155   0.02179   0.02231
     Eigenvalues ---    0.02232   0.02265   0.02268   0.02294   0.02295
     Eigenvalues ---    0.05041   0.05046   0.07175   0.07356   0.15651
     Eigenvalues ---    0.16000   0.16000   0.16000   0.16000   0.16022
     Eigenvalues ---    0.16349   0.20653   0.22000   0.23895   0.24994
     Eigenvalues ---    0.25000   0.33644   0.34712   0.35093   0.35111
     Eigenvalues ---    0.35937   0.35965   0.35977   0.35993   0.38523
     Eigenvalues ---    0.43101   0.43303   0.46703   0.47034   0.47817
     Eigenvalues ---    0.52338   1.36894
 En-DIIS/RFO-DIIS/Sim-DIIS IScMMF=       -3 using points:     3    2
 RFO step:  Lambda=-9.58420644D-07.
 DidBck=F Rises=F RFO-DIIS coefs:    1.10358   -0.10358
 Iteration  1 RMS(Cart)=  0.00020234 RMS(Int)=  0.00000009
 Iteration  2 RMS(Cart)=  0.00000010 RMS(Int)=  0.00000006
 Variable       Old X    -DE/DX   Delta X   Delta X   Delta X     New X
                                 (Linear)    (Quad)   (Total)
    R1        2.83873  -0.00003  -0.00028   0.00016  -0.00012   2.83860
    R2        2.05847  -0.00002   0.00005  -0.00007  -0.00003   2.05844
    R3        2.06419  -0.00004  -0.00002  -0.00010  -0.00013   2.06406
    R4        2.05851  -0.00002   0.00005  -0.00007  -0.00003   2.05848
    R5        2.63327  -0.00004  -0.00005  -0.00003  -0.00009   2.63318
    R6        2.63319  -0.00004  -0.00006  -0.00004  -0.00009   2.63310
    R7        2.61398   0.00019  -0.00007   0.00050   0.00043   2.61441
    R8        2.04705  -0.00005   0.00000  -0.00015  -0.00014   2.04691
    R9        2.63343  -0.00014  -0.00021  -0.00019  -0.00040   2.63303
   R10        2.04416  -0.00008  -0.00000  -0.00023  -0.00023   2.04393
   R11        2.71213   0.00007   0.00045   0.00001   0.00046   2.71259
   R12        2.63337  -0.00014  -0.00021  -0.00019  -0.00040   2.63296
   R13        2.16920  -0.00018  -0.00004  -0.00011  -0.00015   2.16905
   R14        2.61405   0.00019  -0.00007   0.00050   0.00044   2.61449
   R15        2.04416  -0.00008  -0.00000  -0.00023  -0.00023   2.04393
   R16        2.04704  -0.00005   0.00000  -0.00015  -0.00014   2.04690
    A1        1.94100   0.00002  -0.00005   0.00021   0.00016   1.94117
    A2        1.92622   0.00001   0.00004   0.00011   0.00015   1.92637
    A3        1.94092   0.00002  -0.00005   0.00021   0.00016   1.94108
    A4        1.87919  -0.00001   0.00007  -0.00015  -0.00008   1.87911
    A5        1.89522  -0.00003  -0.00007  -0.00027  -0.00034   1.89489
    A6        1.87905  -0.00001   0.00007  -0.00015  -0.00008   1.87897
    A7        2.10738  -0.00000  -0.00006   0.00004  -0.00002   2.10736
    A8        2.10761  -0.00000  -0.00006   0.00004  -0.00003   2.10758
    A9        2.06801   0.00000   0.00013  -0.00008   0.00005   2.06805
   A10        2.11389   0.00001  -0.00005   0.00015   0.00010   2.11399
   A11        2.08466  -0.00002   0.00012  -0.00027  -0.00015   2.08451
   A12        2.08464   0.00001  -0.00008   0.00012   0.00005   2.08468
   A13        2.08904  -0.00011  -0.00022  -0.00038  -0.00060   2.08844
   A14        2.10695   0.00003  -0.00001   0.00011   0.00010   2.10704
   A15        2.08719   0.00008   0.00023   0.00027   0.00050   2.08770
   A16        2.09535  -0.00010  -0.00020  -0.00028  -0.00049   2.09486
   A17        2.09249   0.00019   0.00041   0.00055   0.00096   2.09345
   A18        2.09534  -0.00009  -0.00020  -0.00027  -0.00047   2.09487
   A19        2.08905  -0.00011  -0.00022  -0.00038  -0.00060   2.08845
   A20        2.08720   0.00008   0.00023   0.00027   0.00051   2.08770
   A21        2.10693   0.00003  -0.00001   0.00011   0.00009   2.10703
   A22        2.11388   0.00001  -0.00005   0.00015   0.00010   2.11398
   A23        2.08468  -0.00002   0.00012  -0.00027  -0.00015   2.08453
   A24        2.08463   0.00001  -0.00008   0.00012   0.00004   2.08467
   A25        3.14161  -0.00000   0.00001  -0.00004  -0.00003   3.14158
   A26        3.14168   0.00002  -0.00006   0.00055   0.00049   3.14218
    D1        2.64260  -0.00000  -0.00014   0.00017   0.00003   2.64262
    D2       -0.52010  -0.00001  -0.00002  -0.00028  -0.00029  -0.52039
    D3       -1.55615   0.00000  -0.00007   0.00019   0.00013  -1.55603
    D4        1.56434  -0.00000   0.00006  -0.00025  -0.00019   1.56414
    D5        0.52805   0.00001   0.00001   0.00022   0.00023   0.52828
    D6       -2.63465   0.00000   0.00014  -0.00023  -0.00009  -2.63474
    D7        3.11650  -0.00000   0.00005  -0.00018  -0.00013   3.11638
    D8       -0.02772  -0.00000  -0.00002  -0.00017  -0.00019  -0.02791
    D9       -0.00445   0.00000  -0.00007   0.00025   0.00018  -0.00427
   D10        3.13451   0.00000  -0.00014   0.00026   0.00012   3.13463
   D11       -3.11650   0.00000  -0.00006   0.00018   0.00013  -3.11638
   D12        0.02772   0.00000   0.00002   0.00017   0.00019   0.02791
   D13        0.00445  -0.00000   0.00007  -0.00025  -0.00018   0.00427
   D14       -3.13451  -0.00000   0.00014  -0.00026  -0.00012  -3.13463
   D15        0.00144   0.00000  -0.00003   0.00007   0.00004   0.00148
   D16        3.13964  -0.00000   0.00006  -0.00019  -0.00013   3.13951
   D17       -3.13753   0.00000   0.00005   0.00006   0.00011  -3.13742
   D18        0.00068  -0.00000   0.00013  -0.00020  -0.00007   0.00061
   D19        3.13900  -0.00000   0.00017  -0.00021  -0.00004   3.13896
   D20        0.00169  -0.00001   0.00012  -0.00040  -0.00028   0.00141
   D21        0.00076   0.00000   0.00009   0.00005   0.00014   0.00090
   D22       -3.13656  -0.00000   0.00004  -0.00014  -0.00010  -3.13666
   D23       -0.00169   0.00001  -0.00012   0.00040   0.00028  -0.00141
   D24        3.13656   0.00000  -0.00004   0.00014   0.00010   3.13666
   D25       -3.13900   0.00000  -0.00017   0.00021   0.00004  -3.13896
   D26       -0.00076  -0.00000  -0.00009  -0.00005  -0.00014  -0.00089
   D27       -0.00143  -0.00000   0.00003  -0.00007  -0.00004  -0.00148
   D28        3.13753  -0.00000  -0.00005  -0.00006  -0.00011   3.13742
   D29       -3.13964   0.00000  -0.00006   0.00019   0.00013  -3.13950
   D30       -0.00068   0.00000  -0.00013   0.00020   0.00007  -0.00061
         Item               Value     Threshold  Converged?
 Maximum Force            0.000191     0.000450     YES
 RMS     Force            0.000061     0.000300     YES
 Maximum Displacement     0.000813     0.001800     YES
 RMS     Displacement     0.000202     0.001200     YES
 Predicted change in Energy=-4.792117D-07
 Optimization completed.
    -- Stationary point found.
                           ----------------------------
                           !   Optimized Parameters   !
                           ! (Angstroms and Degrees)  !
 --------------------------                            --------------------------
 ! Name  Definition              Value          Derivative Info.                !
 --------------------------------------------------------------------------------
 ! R1    R(1,2)                  1.5022         -DE/DX =    0.0                 !
 ! R2    R(1,10)                 1.0893         -DE/DX =    0.0                 !
 ! R3    R(1,11)                 1.0923         -DE/DX =    0.0                 !
 ! R4    R(1,12)                 1.0893         -DE/DX =    0.0                 !
 ! R5    R(2,3)                  1.3935         -DE/DX =    0.0                 !
 ! R6    R(2,9)                  1.3934         -DE/DX =    0.0                 !
 ! R7    R(3,4)                  1.3833         -DE/DX =    0.0002              !
 ! R8    R(3,13)                 1.0833         -DE/DX =   -0.0001              !
 ! R9    R(4,5)                  1.3936         -DE/DX =   -0.0001              !
 ! R10   R(4,14)                 1.0817         -DE/DX =   -0.0001              !
 ! R11   R(5,6)                  1.4352         -DE/DX =    0.0001              !
 ! R12   R(5,8)                  1.3935         -DE/DX =   -0.0001              !
 ! R13   R(6,7)                  1.1479         -DE/DX =   -0.0002              !
 ! R14   R(8,9)                  1.3833         -DE/DX =    0.0002              !
 ! R15   R(8,15)                 1.0817         -DE/DX =   -0.0001              !
 ! R16   R(9,16)                 1.0832         -DE/DX =   -0.0001              !
 ! A1    A(2,1,10)             111.2114         -DE/DX =    0.0                 !
 ! A2    A(2,1,11)             110.3642         -DE/DX =    0.0                 !
 ! A3    A(2,1,12)             111.2064         -DE/DX =    0.0                 !
 ! A4    A(10,1,11)            107.6696         -DE/DX =    0.0                 !
 ! A5    A(10,1,12)            108.5882         -DE/DX =    0.0                 !
 ! A6    A(11,1,12)            107.6616         -DE/DX =    0.0                 !
 ! A7    A(1,2,3)              120.7442         -DE/DX =    0.0                 !
 ! A8    A(1,2,9)              120.757          -DE/DX =    0.0                 !
 ! A9    A(3,2,9)              118.4881         -DE/DX =    0.0                 !
 ! A10   A(2,3,4)              121.1168         -DE/DX =    0.0                 !
 ! A11   A(2,3,13)             119.4421         -DE/DX =    0.0                 !
 ! A12   A(4,3,13)             119.4409         -DE/DX =    0.0                 !
 ! A13   A(3,4,5)              119.6933         -DE/DX =   -0.0001              !
 ! A14   A(3,4,14)             120.7191         -DE/DX =    0.0                 !
 ! A15   A(5,4,14)             119.5873         -DE/DX =    0.0001              !
 ! A16   A(4,5,6)              120.0545         -DE/DX =   -0.0001              !
 ! A17   A(4,5,8)              119.8911         -DE/DX =    0.0002              !
 ! A18   A(6,5,8)              120.054          -DE/DX =   -0.0001              !
 ! A19   A(5,8,9)              119.6937         -DE/DX =   -0.0001              !
 ! A20   A(5,8,15)             119.5875         -DE/DX =    0.0001              !
 ! A21   A(9,8,15)             120.7185         -DE/DX =    0.0                 !
 ! A22   A(2,9,8)              121.1164         -DE/DX =    0.0                 !
 ! A23   A(2,9,16)             119.4431         -DE/DX =    0.0                 !
 ! A24   A(8,9,16)             119.4403         -DE/DX =    0.0                 !
 ! A25   L(5,6,7,15,-1)        180.0012         -DE/DX =    0.0                 !
 ! A26   L(5,6,7,15,-2)        180.0051         -DE/DX =    0.0                 !
 ! D1    D(10,1,2,3)           151.4097         -DE/DX =    0.0                 !
 ! D2    D(10,1,2,9)           -29.7995         -DE/DX =    0.0                 !
 ! D3    D(11,1,2,3)           -89.161          -DE/DX =    0.0                 !
 ! D4    D(11,1,2,9)            89.6299         -DE/DX =    0.0                 !
 ! D5    D(12,1,2,3)            30.255          -DE/DX =    0.0                 !
 ! D6    D(12,1,2,9)          -150.9541         -DE/DX =    0.0                 !
 ! D7    D(1,2,3,4)            178.5626         -DE/DX =    0.0                 !
 ! D8    D(1,2,3,13)            -1.5882         -DE/DX =    0.0                 !
 ! D9    D(9,2,3,4)             -0.2552         -DE/DX =    0.0                 !
 ! D10   D(9,2,3,13)           179.594          -DE/DX =    0.0                 !
 ! D11   D(1,2,9,8)           -178.5625         -DE/DX =    0.0                 !
 ! D12   D(1,2,9,16)             1.5883         -DE/DX =    0.0                 !
[...]
     6          0.02892510         -2.26263914          2.01757707
     6          0.00062902         -2.27938538         -0.59619304
     6         -0.01575713         -0.00015592         -1.91521178
     6         -0.03904040         -0.00042663         -4.62724388
     7         -0.05781655         -0.00068849         -6.79635941
     6          0.00027303          2.27929284         -0.59669709
     6          0.02856782          2.26310939          2.01715183
     1          0.93563853          1.67567626          6.95726441
     1         -1.93499649         -0.00770148          6.90000543
     1          0.94925149         -1.66737450          6.95722561
     1          0.04883194         -4.03883818          3.03500158
     1         -0.00297579         -4.04335194         -1.62915171
     1         -0.00361012          4.04304810         -1.63001410
     1          0.04819027          4.03952714          3.03417105

 Electric dipole moment (dipole orientation):
 (Debye = 10**-18 statcoulomb cm , SI units = C m)
                  (au)            (Debye)         (10**-30 SI)
   Tot        0.207323D+01      0.526961D+01      0.175775D+02
   x          0.000000D+00      0.000000D+00      0.000000D+00
   y          0.000000D+00      0.000000D+00      0.000000D+00
   z          0.207323D+01      0.526961D+01      0.175775D+02

 Dipole polarizability, Alpha (dipole orientation).
 (esu units = cm**3 , SI units = C**2 m**2 J**-1)
 Alpha(0;0):
               (au)            (10**-24 esu)      (10**-40 SI)
   iso        0.948653D+02      0.140576D+02      0.156412D+02
   aniso      0.754222D+02      0.111764D+02      0.124354D+02
   xx         0.540942D+02      0.801594D+01      0.891894D+01
   yx        -0.288898D-02     -0.428102D-03     -0.476328D-03
   yy         0.897665D+02      0.133020D+02      0.148005D+02
   zx         0.109821D+00      0.162738D-01      0.181071D-01
   zy        -0.277922D-02     -0.411838D-03     -0.458232D-03
   zz         0.140735D+03      0.208548D+02      0.232041D+02

 ----------------------------------------------------------------------
 Unable to Open any file for archive entry.
 1\1\GINC-NODE12\Freq\RM062X\def2TZVP\C8H7N1\SVSS\20-Jun-2022\0\\#N Geo
 m=AllCheck Guess=TCheck SCRF=Check GenChk RM062X/def2TZVP Freq\\conver
 ted from /home/svss/projects/Project-Philicity/GS/hydrocarbon/set-1/GS
 /mol_22_hc/mol_22_hc_cregen_best.xyz\\0,1\C,-3.2821801258,-0.000035505
 6,-0.0153347566\C,-1.7801976574,0.0000858449,0.009665735\C,-1.06764110
 99,-1.1974149553,0.0088971114\C,0.3155715248,-1.206176126,0.0021145579
 \C,1.0135180382,-0.0000090171,-0.0023359654\C,2.4487114306,-0.00004817
 16,-0.0061573219\N,3.5965966566,-0.0001034707,-0.0092951357\C,0.315664
 8513,1.2061725202,0.0021012474\C,-1.0675882264,1.1975080465,0.00888161
 68\H,-3.6845576083,0.8864290928,0.4733698453\H,-3.6451970852,-0.004263
 9612,-1.0455627601\H,-3.6844517556,-0.8826376906,0.4804462858\H,-1.606
 0239223,-2.137378484,0.0161750035\H,0.8622589517,-2.1395875786,0.00337
 7133\H,0.8624077198,2.1395510785,0.0033519158\H,-1.6058916819,2.137508
 3778,0.0161454877\\Version=AS64L-G16RevC.01\State=1-A\HF=-363.7859787\
 RMSD=2.656e-09\RMSF=1.416e-04\ZeroPoint=0.1274778\Thermal=0.1354066\ET
 ot=-363.650572\HTot=-363.6496279\GTot=-363.6918178\Dipole=-2.0731896,-
 0.0001491,-0.0122783\DipoleDeriv=-0.0883657,-0.0002137,-0.0132183,-0.0
 016121,0.0859381,-0.0000037,-0.153329,-0.0000491,0.0811187,0.4787704,0
 .000269,0.0288028,0.0005774,0.0112393,0.0000111,0.0855042,0.0000205,-0
 .0582997,-0.2550907,0.1348902,-0.0061568,0.1981633,0.0216127,0.0050936
 ,-0.0060374,-0.0004863,-0.126787,0.0799854,-0.0691879,0.0018872,0.0795
 329,0.0349734,-0.003778,-0.0048912,-0.0018756,-0.0860517,-0.0965709,0.
 0000187,-0.0030709,0.0002434,0.0563793,-0.0000019,-0.001552,-0.0000016
 ,0.0291672,0.5355853,-0.0000136,0.0007416,-0.0000371,0.0420675,0.00000
 11,-0.0016886,0.0000017,0.1381726,-0.5391875,-0.000002,-0.0004133,0.00
 00056,-0.3033403,0.,0.0010708,-0.0000002,-0.3278983,0.0803004,0.069241
 4,0.0018811,-0.0796351,0.0349743,0.0037771,-0.0048935,0.0018655,-0.085
 9951,-0.2552145,-0.1349876,-0.0061501,-0.1982197,0.0214685,-0.0050823,
 -0.0060149,0.0004977,-0.1267736,-0.0034489,-0.0000511,0.0028069,0.0636
 969,-0.0434463,-0.0635089,0.0603476,-0.0593229,0.0473065,-0.0529794,-0
 .0000176,-0.0155277,0.0000438,0.0852776,-0.0006398,-0.0446678,-0.00058
 28,-0.0550737,-0.0038472,0.0000122,0.0029015,-0.0627381,-0.0423255,0.0
 641312,0.0608942,0.0599298,0.0464846,0.0179334,-0.0657362,0.0022017,-0
 .0611944,-0.0166961,0.0001864,0.005201,0.0035868,0.1271531,0.0421334,0
 .0469176,0.0005525,0.0418723,0.0142736,0.0002579,0.0024312,0.0016844,0
 .1351426,0.042127,-0.0469093,0.0005533,-0.0418807,0.0142887,-0.0002564
 ,0.0024314,-0.0016825,0.1351402,0.0178697,0.0657699,0.0022084,0.061181
 7,-0.0166848,-0.0001872,0.0051941,-0.0035855,0.1271936\Polar=140.73333
 43,0.0064544,89.7665191,0.4032937,-0.000278,54.0959878\Quadrupole=-7.6
 662733,7.208664,0.4576093,0.0016619,0.1178197,-0.0000598\PG=C01 [X(C8H
 7N1)]\NImag=0\\0.49686292,-0.00012505,0.59462243,-0.01259227,-0.000026
 33,0.54581479,-0.22465729,0.00005884,0.00304890,0.65988094,-0.00003005
 ,-0.08923454,-0.00000011,0.00008448,0.67405907,-0.00215085,0.00000445,
 -0.07198470,0.00278458,-0.00000221,0.18226092,-0.02248325,0.02991275,0
 .00000995,-0.17649671,0.04048401,0.00023920,0.71239399,0.00444298,0.00
 330289,0.00082916,0.12180399,-0.27506761,-0.00039762,0.03850951,0.7198
 8316,-0.00014820,0.00164124,0.00575853,0.00008735,0.00155149,-0.071081
 06,-0.00222897,-0.00282845,0.13821848,0.00270643,0.00190072,0.00170291
 ,-0.02735693,0.09034911,0.00001492,-0.35392436,-0.03813905,0.00079231,
 0.71050538,0.00124023,-0.00474795,-0.00042441,0.02963946,0.04363035,0.
 00059095,0.03971948,-0.13345784,-0.00043293,-0.04287323,0.72837948,0.0
 0037954,0.00121803,0.00696140,-0.00019931,-0.00055232,0.00680160,0.001
 14843,0.00026458,-0.06382430,-0.00220403,-0.00127030,0.14070713,-0.001
 88118,-0.00002167,-0.00166815,0.00370482,0.00000211,0.00059778,-0.0313
 8100,-0.02552051,0.00025813,-0.16388633,-0.11642762,0.00039267,0.69043
 530,-0.00002042,-0.00045542,-0.00000210,0.00001496,-0.08420817,0.00000
 100,-0.08609915,0.03871484,0.00108628,-0.04835864,-0.28104396,0.000576
 91,-0.00002950,0.66496172,0.00015095,0.00000037,-0.00089084,-0.0003520
 2,0.00000026,-0.00794162,0.00037993,0.00001705,0.00887107,0.00020301,0
 .00064134,-0.06705257,-0.00200528,-0.00000252,0.14417777,0.00085791,0.
 00001037,0.00092348,-0.00247763,-0.00000163,-0.00030554,0.00557232,-0.
 00615144,0.00000278,-0.03716144,-0.01392554,0.00014221,-0.29305602,0.0
 0000054,0.00066514,1.64366640,-0.00000038,0.00019840,-0.00000008,0.000
 00087,-0.00334605,0.00000009,-0.00412850,-0.00469752,0.00006026,-0.031
 70999,0.00677919,0.00005902,0.00000423,-0.08790623,0.00000014,-0.00006
 656,0.12541769,-0.00021275,-0.00000017,-0.00112980,0.00016961,0.000000
 09,-0.00110902,-0.00003769,0.00007086,0.00794254,0.00021164,0.00015604
 ,0.00143755,0.00058477,0.00000017,-0.06025143,-0.00429128,0.,0.0903970
 0,-0.00045073,-0.00000567,-0.00049579,0.00157450,0.00000136,0.00019093
 ,-0.00249379,0.00057940,0.00001215,0.00419162,0.00789133,-0.00004494,-
 0.01946559,0.00000467,0.00010330,-1.28855386,0.00005805,0.00343550,1.3
 0513329,0.00000019,0.00000702,0.00000004,-0.00000029,0.00083713,-0.000
 00003,0.00084829,0.00096302,-0.00001542,0.00267319,-0.00224795,0.00000
 584,0.00000158,0.02224999,-0.00000003,0.00005960,-0.03947299,-0.000000
 16,-0.00006078,0.01869318,0.00004476,0.00000004,0.00019919,-0.00004010
 ,-0.00000002,0.00018669,0.00001274,-0.00001403,-0.00133743,-0.00002333
 ,-0.00003848,0.00134605,0.00010667,-0.00000004,0.01772372,0.00342490,-
 0.00000016,-0.03925091,-0.00352252,0.00000018,0.02060618,0.00266496,-0
 .00186278,0.00169890,-0.02733107,-0.09035377,0.00001758,-0.06099796,0.
 03219465,0.00088081,0.07208701,0.02916267,-0.00016874,-0.16390191,0.04
 838346,0.00020275,-0.03716172,0.03171486,0.00021140,0.00419119,-0.0026
 7403,-0.00002332,0.71044623,-0.00121893,-0.00473357,0.00042693,-0.0296
 5124,0.04362358,-0.00059216,0.03619124,-0.02100942,-0.00048476,-0.0291
 7060,-0.06145232,0.00016475,0.11645329,-0.28111408,-0.00063937,0.01393
 183,0.00677538,-0.00015608,-0.00789307,-0.00224682,0.00003852,0.042836
 17,0.72843205,0.00037934,-0.00121781,0.00699529,-0.00019885,0.00055138
 ,0.00680054,0.00028696,-0.00023795,-0.00780656,-0.00016813,-0.00016388
 ,0.01183510,0.00039156,-0.00057522,-0.06705516,0.00014205,-0.00005913,
 0.00143888,-0.00004484,-0.00000580,0.00134600,-0.00220373,0.00126405,0
 .14071602,-0.02243603,-0.02990623,0.00001408,-0.17657203,-0.04051827,0
 .00023872,0.07398621,-0.02688360,-0.00119607,-0.06101078,-0.03619348,0
 .00028776,-0.03136915,0.08611256,0.00037878,0.00557279,0.00412754,-0.0
 0003780,-0.00249363,-0.00084794,0.00001277,-0.35381582,-0.03970463,0.0
 0114828,0.71228665,-0.00442238,0.00327188,-0.00082823,-0.12188284,-0.2
 7512097,0.00039959,0.02686144,-0.05877832,-0.00059791,-0.03218437,-0.0
 2100169,0.00023838,0.02552637,0.03870176,-0.00001756,0.00615078,-0.004
 69839,-0.00007079,-0.00057921,0.00096321,0.00001402,0.03815381,-0.1334
 5537,-0.00026360,-0.03848424,0.71999304,-0.00014838,-0.00164105,0.0057
 9669,0.00008789,-0.00154843,-0.07106140,-0.00119554,0.00059792,0.01011
 112,0.00088087,0.00048482,-0.00780842,0.00025779,-0.00108593,0.0088708
 0,0.00000273,-0.00006015,0.00794789,0.00001216,0.00001541,-0.00133842,
 0.00079065,0.00043323,-0.06384196,-0.00222751,0.00282067,0.13821826,-0
 .08129801,0.07734016,0.04526298,-0.01294056,0.02838134,0.01494188,-0.0
 0565319,-0.00171547,0.00021479,-0.00009679,0.00146723,-0.00088237,-0.0
 0011647,-0.00020068,0.00012621,0.00016951,-0.00010031,0.00006373,-0.00
 010351,0.00000656,-0.00001268,0.00002861,0.00005953,-0.00039400,0.0016
 5757,0.00174469,-0.00065029,0.09125930,0.08000205,-0.23074270,-0.10106
 197,0.00020394,0.00026945,0.00193541,0.00032752,0.00036434,-0.00059809
 ,-0.00009775,-0.00009125,-0.00004990,-0.00030165,0.00034953,0.00001994
 ,0.00012071,0.00005204,-0.00015393,-0.00002884,-0.00000781,0.00003406,
 0.00068377,0.00010300,0.00055404,-0.00208008,0.00043594,0.00046993,-0.
 08722750,0.24703456,0.04728508,-0.10140985,-0.10157410,-0.00277022,0.0
 0291773,-0.00013934,-0.00004791,-0.00002572,0.00063352,-0.00099461,-0.
 00013440,0.00007875,0.00026249,0.00052527,0.00002458,-0.00018177,0.000
 03376,0.00000964,0.00009400,-0.00000551,-0.00000495,0.00019966,-0.0000
 4358,-0.00007392,-0.00025848,-0.00019435,0.00046939,-0.04838303,0.1112
 9991,0.10639195,-0.07100393,-0.00033142,-0.08355872,-0.01432011,-0.000
 13952,-0.03172518,-0.00067333,-0.00097861,0.00073590,-0.00014116,-0.00
 008836,0.00151728,-0.00052067,-0.00000221,-0.00017924,0.00028453,0.000
 00031,-0.00021474,-0.00020535,0.00000001,0.00004427,-0.00014814,0.0000
 8366,0.00152157,-0.00070364,0.00098443,0.00072973,0.00352607,-0.000945
 11,0.01149300,0.08054542,-0.00031405,-0.04445448,-0.00099037,-0.000022
 61,-0.00019305,0.00000834,0.00205709,-0.00038593,-0.00057972,-0.001261
 12,-0.00068604,-0.00039889,0.00000628,0.00127709,0.00000016,-0.0000034
 2,0.00003396,-0.00000173,0.00000154,-0.00001525,0.00000038,0.00124655,
 -0.00068562,0.00040591,-0.00204823,-0.00038536,0.00058295,-0.00934653,
 0.00066150,-0.02590884,0.00037637,0.04424796,-0.07971346,-0.00099291,-
 0.28532319,-0.00176366,0.00001187,0.00291676,0.00051162,-0.00069237,0.
 00033735,-0.00061594,-0.00002081,0.00004549,0.00055852,0.00000243,-0.0
 0006187,-0.00026791,0.00000032,-0.00007411,0.00012290,-0.00000004,0.00
 001731,-0.00061034,0.00002131,0.00003918,0.00051036,0.00069259,0.00032
 001,-0.00401573,0.00070010,-0.01327502,0.08970168,0.00108490,0.3090139
 7,-0.08125391,-0.07696078,0.04590594,-0.01296342,-0.02826225,0.0151569
 0,0.00164942,-0.00173378,-0.00065770,0.00003226,-0.00006130,-0.0004015
 5,-0.00012018,0.00019522,0.00012775,0.00017053,0.00009959,0.00006496,-
 0.00010439,-0.00000646,-0.00001293,-0.00010229,-0.00145548,-0.00089437
 ,-0.00562292,0.00171493,0.00021449,0.00404007,0.00932216,-0.00698938,0
 .00352504,0.00931021,-0.00409284,0.09121717,-0.07956163,-0.22908935,0.
 10207686,-0.00024420,0.00024728,-0.00194795,0.00208402,0.00042772,-0.0
 0047161,-0.00069726,0.00009758,-0.00055751,0.00030953,0.00035415,-0.00
 002021,-0.00012543,0.00005192,0.00015578,0.00003136,-0.00000787,-0.000
 03446,0.00009169,-0.00009437,0.00004638,-0.00033797,0.00036084,0.00059
 715,-0.00937364,-0.01904962,0.01279893,0.00103569,0.00086167,-0.000810
 58,0.08680846,0.24522389,0.04792390,0.10242461,-0.10315002,-0.00277749
 ,-0.00293114,-0.00009063,-0.00026126,0.00019796,0.00048183,0.00020228,
 0.00004252,-0.00006970,0.00026134,-0.00052687,0.00002375,-0.00018155,-
 0.00003406,0.00000971,0.00009396,0.00000554,-0.00000492,-0.00099599,0.
 00013402,0.00006942,-0.00005068,0.00002202,0.00061215,-0.00691464,-0.0
 1258723,0.00754520,0.01148023,0.02580610,-0.01349143,-0.04907386,-0.11
 240343,0.10814838,0.00128163,0.00095513,-0.00027266,0.01040133,0.01382
 095,0.00005990,-0.12819352,-0.12181390,0.00124608,-0.01125235,-0.02875
 634,0.00004370,-0.00513027,0.00102458,0.00006747,-0.00051961,-0.001480
 58,0.00004581,-0.00036547,0.00027700,-0.00000838,-0.00074665,0.0008365
 9,-0.00001555,-0.00102597,0.00349673,0.00005030,-0.00004851,-0.0001577
 3,-0.00003436,0.00002065,0.00003620,-0.00012935,-0.00002591,-0.0001024
 8,0.00035357,0.13397087,-0.00156726,0.00094781,0.00043265,-0.01561703,
 -0.01930371,0.00025240,-0.12158797,-0.27224044,0.00174832,0.00202719,0
 .00395324,-0.00005621,0.00077664,0.00207327,0.00005726,0.00013326,0.00
 019229,0.00001181,0.00000822,-0.00008033,-0.00000280,0.00116341,0.0000
 2982,-0.00000283,0.00370228,-0.00332830,0.00005613,0.00002048,0.000389
 42,-0.00013686,0.00028873,-0.00012752,-0.00004898,0.00101945,0.0002257
 4,-0.00028347,0.13084234,0.28767301,-0.00048618,-0.00089021,-0.0035102
 8,0.00073865,0.00000263,0.00432153,0.00115826,0.00208960,-0.03829339,-
 0.00004364,0.00012283,0.00309135,0.00007512,0.00006655,0.00768136,-0.0
 0000140,0.00001892,0.00051223,0.00000954,-0.00000350,-0.00019128,0.000
 06716,-0.00003953,-0.00071432,-0.00006882,-0.00016817,0.00653382,0.000
 27214,-0.00003836,-0.00002883,-0.00068143,0.00028402,-0.00026622,0.000
 34675,0.00050645,0.00004694,-0.00132377,-0.00196030,0.02609185,-0.0000
 9831,0.00131592,0.00014693,-0.00541487,-0.00108944,-0.00006007,-0.0094
 0014,0.02798571,-0.00007022,-0.13282681,0.12675608,-0.00001520,0.01090
 931,-0.01560471,0.00003204,0.00157787,-0.00059940,-0.00001945,-0.00024
 435,0.00035974,0.00000276,-0.00111939,-0.00328619,0.00002009,-0.000880
 30,-0.00091716,0.00002053,-0.00042588,0.00003413,-0.00004550,-0.000100
 78,0.00000861,-0.00003520,0.00003132,-0.00003995,0.00002041,0.00098166
 ,-0.00033189,-0.00001418,0.13640138,-0.00013705,0.00008324,0.00000738,
 -0.00090559,0.00155662,0.00000295,-0.00220689,0.00493068,-0.00000486,0
 .12468677,-0.27515563,0.00038024,0.01536082,-0.01801379,0.00003327,0.0
 0114429,0.00021396,-0.00002267,-0.00054069,0.00022294,0.00000337,-0.00
 401898,-0.00298427,0.00002554,-0.00072906,0.00037985,0.00001788,-0.000
 01759,0.00000926,0.00000900,0.00002526,-0.00001335,-0.00000882,0.00001
 376,-0.00000923,0.00000654,0.00032570,0.00062745,-0.00001571,-0.133887
 27,0.28903607,-0.00011288,-0.00011422,-0.00021351,0.00022345,-0.000119
 86,0.00790072,0.00001429,-0.00000854,0.00411294,-0.00000274,0.00047112
 ,-0.03893629,-0.00007438,0.00002683,0.00409999,-0.00003624,-0.00001210
 ,-0.00419521,0.00001208,-0.00000126,0.00044686,-0.00002233,0.00006389,
 0.00609871,0.00007850,0.00003065,-0.00065652,0.00000234,0.00001004,-0.
 00008179,-0.00009154,0.00005944,0.00003068,0.00002697,0.00003125,-0.00
 002842,-0.00003867,-0.00003700,-0.00423167,0.00002774,-0.00041984,0.02
 626579,-0.00009862,-0.00131307,0.00014692,-0.00541500,0.00108881,-0.00
 006019,-0.00088001,0.00091744,0.00002056,-0.00111868,0.00328599,0.0000
 2010,0.01090952,0.01560307,0.00003185,0.00157776,0.00059968,-0.0000194
 6,-0.00024429,-0.00035969,0.00000277,-0.13284335,-0.12676673,-0.000013
 83,-0.00939941,-0.02798461,-0.00006970,0.00003153,0.00004005,0.0000200
 7,-0.00010308,-0.00000934,-0.00003484,-0.00042427,-0.00003459,-0.00004
 550,0.00005788,-0.00009657,-0.00000263,0.00055156,0.00080063,-0.000008
 11,0.13641713,0.00013736,0.00008298,-0.00000737,0.00090597,0.00155714,
 -0.00000279,0.00072899,0.00037958,-0.00001795,0.00401906,-0.00298459,-
 0.00002544,-0.01536321,-0.01801467,-0.00003299,-0.00114407,0.00021406,
 0.00002262,0.00054058,0.00022285,-0.00000336,-0.12469579,-0.27514028,-
 0.00037722,0.00220783,0.00493227,0.00000474,-0.00001359,-0.00000923,-0
 .00000647,-0.00002507,-0.00001334,0.00000885,0.00001737,0.00000905,-0.
 00000912,-0.00008591,-0.00000782,0.00000661,-0.00080074,-0.00087597,0.
 00000768,0.13389694,0.28902077,-0.00011292,0.00011393,-0.00021484,0.00
 022344,0.00012009,0.00789435,0.00007852,-0.00003064,-0.00065653,-0.000
 02235,-0.00006380,0.00610096,-0.00007420,-0.00002656,0.00410248,-0.000
 03623,0.00001206,-0.00419772,0.00001207,0.00000126,0.00044728,-0.00000
 116,-0.00046812,-0.03893610,0.00001403,0.00000860,0.00411453,0.0000262
 8,-0.00003112,-0.00002878,-0.00009096,-0.00006007,0.00003129,0.0000024
 6,-0.00000949,-0.00007947,0.00000149,-0.00001196,-0.00111032,-0.000008
 09,-0.00000767,0.00049743,0.00002619,0.00041656,0.02626482,0.00128742,
 -0.00096720,-0.00027342,0.01038405,-0.01381724,0.00005943,-0.00102467,
 -0.00349730,0.00005029,-0.00074706,-0.00083659,-0.00001555,-0.00513017
 ,-0.00102373,0.00006736,-0.00051932,0.00148058,0.00004576,-0.00036565,
 -0.00027697,-0.00000837,-0.01124969,0.02875458,0.00004344,-0.12817355,
 0.12182163,0.00124427,-0.00002972,0.00010431,0.00035096,0.00001849,-0.
 00003754,-0.00012583,-0.00004852,0.00015641,-0.00003472,0.00059425,-0.
 00078128,-0.00004556,0.00005772,0.00008589,0.00000151,0.00098132,-0.00
 032573,-0.00003856,0.13396510,0.00157438,0.00094136,-0.00043205,0.0156
 1129,-0.01930653,-0.00025241,-0.00370184,-0.00332914,-0.00005589,-0.00
 116403,0.00002938,0.00000283,-0.00077668,0.00207397,-0.00005711,-0.000
 13329,0.00019230,-0.00001181,-0.00000824,-0.00008033,0.00000279,-0.002
 02568,0.00395231,0.00005614,0.12158352,-0.27227039,-0.00174527,-0.0010
 2468,0.00023159,0.00028099,-0.00028415,-0.00012226,0.00005215,-0.00002
 110,0.00039060,0.00013602,0.00078173,-0.00102392,0.00001816,0.00009656
 ,-0.00000783,0.00001193,0.00033201,0.00062719,0.00003694,-0.13083979,0
 .28770171,-0.00048568,0.00088988,-0.00353461,0.00073775,-0.00000144,0.
 00432467,-0.00006854,0.00016821,0.00653189,0.00006684,0.00003939,-0.00
 071411,0.00007515,-0.00006619,0.00767798,-0.00000136,-0.00001890,0.000
 51275,0.00000952,0.00000349,-0.00019137,-0.00004330,-0.00012309,0.0030
 8887,0.00115606,-0.00208591,-0.03828794,0.00034238,-0.00050283,0.00005
 368,-0.00068185,-0.00029256,-0.00026020,0.00027642,0.00004246,-0.00002
 282,-0.00004558,-0.00001817,0.00006725,-0.00000261,-0.00000660,-0.0011
 0970,-0.00001419,0.00001567,-0.00422938,-0.00132102,0.00195660,0.02609
 303\\-0.00006110,0.00000032,0.00004268,0.00001433,-0.00000099,-0.00002
 135,0.00020547,-0.00004253,0.00000370,-0.00047436,0.00008224,0.0000169
 0,0.00052779,-0.00000428,-0.00000918,-0.00025638,0.00000263,-0.0000221
 8,0.00018233,-0.00000075,0.00001339,-0.00047608,-0.00007925,0.00001698
 ,0.00020760,0.00004399,0.00000418,0.00001663,0.00002759,0.00000071,-0.
 00000179,-0.00000056,-0.00004366,0.00001648,-0.00002749,0.00000130,-0.
 00001156,-0.00005472,0.00000082,0.00006078,-0.00005448,-0.00000251,0.0
 0006121,0.00005400,-0.00000260,-0.00001135,0.00005427,0.00000082\\\@
 The archive entry for this job was punched.


 What some people mistake for the high cost
 of living is really the cost of living high.
                              -- Doug Larson
 Job cpu time:       0 days  1 hours  5 minutes 31.5 seconds.
 Elapsed time:       0 days  0 hours  8 minutes 16.8 seconds.
 File lengths (MBytes):  RWF=    203 Int=      0 D2E=      0 Chk=     10 Scr=      2
 Normal termination of Gaussian 16 at Mon Jun 20 18:19:10 2022.
