 Entering Gaussian System, Link 0=/opt/apps/Gaussian/G16C/g16/g16
 Input=/home/svss/projects/Project-Philicity/GS/hydrocarbon/set-1/GS/mol_30_hc/mol_30_hc.com
 Output=/home/svss/projects/Project-Philicity/GS/hydrocarbon/set-1/GS/mol_30_hc/mol_30_hc.log
 Initial command:
 /opt/apps/Gaussian/G16C/g16/l1.exe "/home/svss/projects/Project-Philicity/GS/hydrocarbon/set-1/Gau-278349.inp" -scrdir="/home/svss/projects/Project-Philicity/GS/hydrocarbon/set-1/"
 Entering Link 1 = /opt/apps/Gaussian/G16C/g16/l1.exe PID=    278350.
  
 Copyright (c) 1988-2019, Gaussian, Inc.  All Rights Reserved.
  
 This is part of the Gaussian(R) 16 program.  It is based on
 the Gaussian(R) 09 system (copyright 2009, Gaussian, Inc.),
 the Gaussian(R) 03 system (copyright 2003, Gaussian, Inc.),
 the Gaussian(R) 98 system (copyright 1998, Gaussian, Inc.),
 the Gaussian(R) 94 system (copyright 1995, Gaussian, Inc.),
 the Gaussian 92(TM) system (copyright 1992, Gaussian, Inc.),
 the Gaussian 90(TM) system (copyright 1990, Gaussian, Inc.),
 the Gaussian 88(TM) system (copyright 1988, Gaussian, Inc.),
 the Gaussian 86(TM) system (copyright 1986, Carnegie Mellon
 University), and the Gaussian 82(TM) system (copyright 1983,
 Carnegie Mellon University). Gaussian is a federally registered
 trademark of Gaussian, Inc.
  
 This software contains proprietary and confidential information,
 including trade secrets, belonging to Gaussian, Inc.
  
 This software is provided under written license and may be
 used, copied, transmitted, or stored only in accord with that
 written license.
  
 The following legend is applicable only to US Government
 contracts under FAR:
  
                    RESTRICTED RIGHTS LEGEND
  
 Use, reproduction and disclosure by the US Government is
 subject to restrictions as set forth in subparagraphs (a)
 and (c) of the Commercial Computer Software - Restricted
 Rights clause in FAR 52.227-19.
  
 Gaussian, Inc.
 340 Quinnipiac St., Bldg. 40, Wallingford CT 06492
  
  
 ---------------------------------------------------------------
 Warning -- This program may not be used in any manner that
 competes with the business of Gaussian, Inc. or will provide
 assistance to any competitor of Gaussian, Inc.  The licensee
 of this program is prohibited from giving any competitor of
 Gaussian, Inc. access to this program.  By using this program,
 the user acknowledges that Gaussian, Inc. is engaged in the
 business of creating and licensing software in the field of
 computational chemistry and represents and warrants to the
 licensee that it is not a competitor of Gaussian, Inc. and that
 it will not use this program in any manner prohibited above.
 ---------------------------------------------------------------
  

 Cite this work as:
 Gaussian 16, Revision C.01,
 M. J. Frisch, G. W. Trucks, H. B. Schlegel, G. E. Scuseria, 
 M. A. Robb, J. R. Cheeseman, G. Scalmani, V. Barone, 
 G. A. Petersson, H. Nakatsuji, X. Li, M. Caricato, A. V. Marenich, 
 J. Bloino, B. G. Janesko, R. Gomperts, B. Mennucci, H. P. Hratchian, 
 J. V. Ortiz, A. F. Izmaylov, J. L. Sonnenberg, D. Williams-Young, 
 F. Ding, F. Lipparini, F. Egidi, J. Goings, B. Peng, A. Petrone, 
 T. Henderson, D. Ranasinghe, V. G. Zakrzewski, J. Gao, N. Rega, 
 G. Zheng, W. Liang, M. Hada, M. Ehara, K. Toyota, R. Fukuda, 
 J. Hasegawa, M. Ishida, T. Nakajima, Y. Honda, O. Kitao, H. Nakai, 
 T. Vreven, K. Throssell, J. A. Montgomery, Jr., J. E. Peralta, 
 F. Ogliaro, M. J. Bearpark, J. J. Heyd, E. N. Brothers, K. N. Kudin, 
 V. N. Staroverov, T. A. Keith, R. Kobayashi, J. Normand, 
 K. Raghavachari, A. P. Rendell, J. C. Burant, S. S. Iyengar, 
 J. Tomasi, M. Cossi, J. M. Millam, M. Klene, C. Adamo, R. Cammi, 
 J. W. Ochterski, R. L. Martin, K. Morokuma, O. Farkas, 
 J. B. Foresman, and D. J. Fox, Gaussian, Inc., Wallingford CT, 2019.
 
 ******************************************
 Gaussian 16:  AS64L-G16RevC.01  3-Jul-2019
                20-Jun-2022 
 ******************************************
 %nproc=8
 Will use up to    8 processors via shared memory.
 %mem=96GB
 %chk=/home/svss/projects/Project-Philicity/GS/hydrocarbon/set-1/GS/mol_30_hc/mol
 _30_hc.chk
 -------------------------
 # opt freq M062X/def2tzvp
 -------------------------
 1/18=20,19=15,26=3,38=1/1,3;
 2/9=110,12=2,17=6,18=5,40=1/2;
 3/5=44,7=101,11=2,25=1,30=1,71=1,74=-55/1,2,3;
 4//1;
 5/5=2,38=5/2;
 6/7=2,8=2,9=2,10=2,28=1/1;
 7//1,2,3,16;
 1/18=20,19=15,26=3/3(2);
 2/9=110/2;
 99//99;
 2/9=110/2;
 3/5=44,7=101,11=2,25=1,30=1,71=1,74=-55/1,2,3;
 4/5=5,16=3,69=1/1;
 5/5=2,38=5/2;
 7//1,2,3,16;
 1/18=20,19=15,26=3/3(-5);
 2/9=110/2;
 6/7=2,8=2,9=2,10=2,19=2,28=1/1;
 99/9=1/99;
 ----------------------------------------------------------------------
 converted from /home/svss/projects/Project-Philicity/GS/hydrocarbon/se
 t-1/GS/mol_30_hc/mol_30_hc_cregen_best.xyz
 ----------------------------------------------------------------------
 Symbolic Z-matrix:
 Charge =  0 Multiplicity = 1
 O                     0.        0.06367   0. 
 H                    -0.77219  -0.50537   0. 
 H                     0.77219  -0.50537   0. 
 

 GradGradGradGradGradGradGradGradGradGradGradGradGradGradGradGradGradGrad
 Berny optimization.
 Initialization pass.
                           ----------------------------
                           !    Initial Parameters    !
                           ! (Angstroms and Degrees)  !
 --------------------------                            --------------------------
 ! Name  Definition              Value          Derivative Info.                !
 --------------------------------------------------------------------------------
 ! R1    R(1,2)                  0.9592         estimate D2E/DX2                !
 ! R2    R(1,3)                  0.9592         estimate D2E/DX2                !
 ! A1    A(2,1,3)              107.2257         estimate D2E/DX2                !
 --------------------------------------------------------------------------------
 Trust Radius=3.00D-01 FncErr=1.00D-07 GrdErr=1.00D-06 EigMax=2.50D+02 EigMin=1.00D-04
 Number of steps in this run=     20 maximum allowed number of steps=    100.
 GradGradGradGradGradGradGradGradGradGradGradGradGradGradGradGradGradGrad

                          Input orientation:                          
 ---------------------------------------------------------------------
 Center     Atomic      Atomic             Coordinates (Angstroms)
 Number     Number       Type             X           Y           Z
 ---------------------------------------------------------------------
      1          8           0        0.000000    0.063670    0.000000
      2          1           0       -0.772190   -0.505370    0.000000
      3          1           0        0.772190   -0.505370    0.000000
 ---------------------------------------------------------------------
                    Distance matrix (angstroms):
                    1          2          3
     1  O    0.000000
     2  H    0.959210   0.000000
     3  H    0.959210   1.544380   0.000000
 Stoichiometry    H2O
 Framework group  C2V[C2(O),SGV(H2)]
 Deg. of freedom     2
 Full point group                 C2V     NOp   4
 Largest Abelian subgroup         C2V     NOp   4
 Largest concise Abelian subgroup C2      NOp   2
                         Standard orientation:                         
 ---------------------------------------------------------------------
 Center     Atomic      Atomic             Coordinates (Angstroms)
 Number     Number       Type             X           Y           Z
 ---------------------------------------------------------------------
      1          8           0        0.000000   -0.000000    0.113808
      2          1           0        0.000000    0.772190   -0.455232
      3          1           0       -0.000000   -0.772190   -0.455232
 ---------------------------------------------------------------------
 Rotational constants (GHZ):         871.8903539         420.4881048         283.6781440
 Standard basis: def2TZVP (5D, 7F)
 There are    22 symmetry adapted cartesian basis functions of A1  symmetry.
 There are     4 symmetry adapted cartesian basis functions of A2  symmetry.
 There are     9 symmetry adapted cartesian basis functions of B1  symmetry.
 There are    13 symmetry adapted cartesian basis functions of B2  symmetry.
 There are    19 symmetry adapted basis functions of A1  symmetry.
 There are     4 symmetry adapted basis functions of A2  symmetry.
 There are     8 symmetry adapted basis functions of B1  symmetry.
 There are    12 symmetry adapted basis functions of B2  symmetry.
    43 basis functions,    67 primitive gaussians,    48 cartesian basis functions
     5 alpha electrons        5 beta electrons
       nuclear repulsion energy         9.1695305470 Hartrees.
 NAtoms=    3 NActive=    3 NUniq=    2 SFac= 2.25D+00 NAtFMM=   60 NAOKFM=F Big=F
 Integral buffers will be    131072 words long.
 Raffenetti 2 integral format.
 Two-electron integral symmetry is turned on.
 One-electron integrals computed using PRISM.
   4 Symmetry operations used in ECPInt.
 ECPInt:  NShTT=     190 NPrTT=     556 LenC2=     191 LenP2D=     543.
 LDataN:  DoStor=T MaxTD1= 6 Len=  172
 NBasis=    43 RedAO= T EigKep=  8.40D-03  NBF=    19     4     8    12
 NBsUse=    43 1.00D-06 EigRej= -1.00D+00 NBFU=    19     4     8    12
 ExpMin= 1.03D-01 ExpMax= 2.70D+04 ExpMxC= 9.22D+02 IAcc=3 IRadAn=         5 AccDes= 0.00D+00
 Harris functional with IExCor= 1009 and IRadAn=       5 diagonalized for initial guess.
 HarFok:  IExCor= 1009 AccDes= 0.00D+00 IRadAn=         5 IDoV= 1 UseB2=F ITyADJ=14
 ICtDFT=  3500011 ScaDFX=  1.000000  1.000000  1.000000  1.000000
 FoFCou: FMM=F IPFlag=           0 FMFlag=      100000 FMFlg1=           0
         NFxFlg=           0 DoJE=T BraDBF=F KetDBF=T FulRan=T
         wScrn=  0.000000 ICntrl=       500 IOpCl=  0 I1Cent=   200000004 NGrid=           0
         NMat0=    1 NMatS0=      1 NMatT0=    0 NMatD0=    1 NMtDS0=    0 NMtDT0=    0
 Petite list used in FoFCou.
 Initial guess orbital symmetries:
       Occupied  (A1) (A1) (B2) (A1) (B1)
       Virtual   (A1) (B2) (B2) (A1) (B1) (A1) (B2) (A1) (A1) (A2)
                 (B1) (B2) (A1) (B2) (A1) (B1) (A2) (B2) (A1) (B1)
                 (B2) (A1) (A1) (A1) (B2) (B1) (A1) (B1) (A2) (B2)
                 (B2) (A1) (B1) (A2) (A1) (A1) (B2) (A1)
 The electronic state of the initial guess is 1-A1.
 Keep R1 ints in memory in symmetry-blocked form, NReq=7438562.
 Requested convergence on RMS density matrix=1.00D-08 within 128 cycles.
 Requested convergence on MAX density matrix=1.00D-06.
 Requested convergence on             energy=1.00D-06.
 No special actions if energy rises.
 Integral accuracy reduced to 1.0D-05 until final iterations.
 Initial convergence to 1.0D-05 achieved.  Increase integral accuracy.
 SCF Done:  E(RM062X) =  -76.4260169181     A.U. after   11 cycles
            NFock= 11  Conv=0.18D-08     -V/T= 2.0037

 **********************************************************************

            Population analysis using the SCF Density.

 **********************************************************************

 Orbital symmetries:
       Occupied  (A1) (A1) (B2) (A1) (B1)
       Virtual   (A1) (B2) (B2) (A1) (B1) (A1) (B2) (A1) (A1) (A2)
                 (B1) (B2) (A1) (B2) (A1) (B1) (A2) (B2) (A1) (B2)
                 (A1) (B1) (A1) (A1) (B2) (B1) (A1) (B1) (A2) (B2)
                 (B2) (A1) (B1) (A2) (A1) (A1) (B2) (A1)
 The electronic state is 1-A1.
 Alpha  occ. eigenvalues --  -19.62119  -1.13134  -0.61195  -0.46685  -0.39821
 Alpha virt. eigenvalues --    0.05404   0.12230   0.41297   0.45197   0.48253
 Alpha virt. eigenvalues --    0.49476   0.62222   0.63764   1.23673   1.23769
 Alpha virt. eigenvalues --    1.35686   1.57114   1.67498   1.78725   2.02074
 Alpha virt. eigenvalues --    2.09097   2.16138   2.32433   2.45402   2.65240
 Alpha virt. eigenvalues --    2.67749   2.68490   2.81733   3.64092   3.97626
 Alpha virt. eigenvalues --    5.12858   5.21574   5.40300   5.41004   5.50623
 Alpha virt. eigenvalues --    6.02308   6.22161   6.31204   6.38688   6.40353
 Alpha virt. eigenvalues --    6.93151   6.96018  43.41138
          Condensed to atoms (all electrons):
               1          2          3
     1  O    8.044596   0.308520   0.308520
     2  H    0.308520   0.386484  -0.025822
     3  H    0.308520  -0.025822   0.386484
 Mulliken charges:
               1
     1  O   -0.661636
     2  H    0.330818
     3  H    0.330818
 Sum of Mulliken charges =  -0.00000
 Mulliken charges with hydrogens summed into heavy atoms:
               1
     1  O   -0.000000
 Electronic spatial extent (au):  <R**2>=             19.5866
 Charge=             -0.0000 electrons
 Dipole moment (field-independent basis, Debye):
    X=             -0.0000    Y=             -0.0000    Z=             -2.0622  Tot=              2.0622
 Quadrupole moment (field-independent basis, Debye-Ang):
   XX=             -7.5610   YY=             -4.2130   ZZ=             -6.3541
   XY=              0.0000   XZ=              0.0000   YZ=              0.0000
 Traceless Quadrupole moment (field-independent basis, Debye-Ang):
   XX=             -1.5183   YY=              1.8297   ZZ=             -0.3114
   XY=              0.0000   XZ=              0.0000   YZ=              0.0000
 Octapole moment (field-independent basis, Debye-Ang**2):
  XXX=              0.0000  YYY=              0.0000  ZZZ=             -1.3510  XYY=             -0.0000
  XXY=              0.0000  XXZ=             -0.3673  XZZ=              0.0000  YZZ=              0.0000
  YYZ=             -1.3804  XYZ=             -0.0000
 Hexadecapole moment (field-independent basis, Debye-Ang**3):
 XXXX=             -6.4501 YYYY=             -6.0598 ZZZZ=             -7.1043 XXXY=             -0.0000
 XXXZ=             -0.0000 YYYX=              0.0000 YYYZ=             -0.0000 ZZZX=             -0.0000
 ZZZY=              0.0000 XXYY=             -2.3954 XXZZ=             -2.3073 YYZZ=             -1.8888
 XXYZ=              0.0000 YYXZ=              0.0000 ZZXY=              0.0000
 N-N= 9.169530546953D+00 E-N=-1.991687891903D+02  KE= 7.614157989861D+01
 Symmetry A1   KE= 6.800756417867D+01
 Symmetry A2   KE= 4.025779084471D-35
 Symmetry B1   KE= 4.511970942430D+00
 Symmetry B2   KE= 3.622044777509D+00
   4 Symmetry operations used in ECPInt.
 ECPInt:  NShTT=     190 NPrTT=     556 LenC2=     191 LenP2D=     543.
 LDataN:  DoStor=T MaxTD1= 7 Len=  274
 Calling FoFJK, ICntrl=      2127 FMM=F ISym2X=1 I1Cent= 0 IOpClX= 0 NMat=1 NMatS=1 NMatT=0.
 ***** Axes restored to original set *****
 -------------------------------------------------------------------
 Center     Atomic                   Forces (Hartrees/Bohr)
 Number     Number              X              Y              Z
 -------------------------------------------------------------------
      1        8           0.000000000    0.003978111    0.000000000
      2        1           0.001394039   -0.001989055   -0.000000000
      3        1          -0.001394039   -0.001989055   -0.000000000
 -------------------------------------------------------------------
 Cartesian Forces:  Max     0.003978111 RMS     0.001751975

 GradGradGradGradGradGradGradGradGradGradGradGradGradGradGradGradGradGrad
 Berny optimization.
 FormGI is forming the generalized inverse of G from B-inverse, IUseBI=4.
 Internal  Forces:  Max     0.004401537 RMS     0.002541666
 Search for a local minimum.
 Step number   1 out of a maximum of   20
 All quantities printed in internal units (Hartrees-Bohrs-Radians)
 Mixed Optimization -- RFO/linear search
 Second derivative matrix not updated -- first step.
 The second derivative matrix:
                          R1        R2        A1
           R1           0.55644
           R2           0.00000   0.55644
           A1           0.00000   0.00000   0.16000
 ITU=  0
     Eigenvalues ---    0.16000   0.55644   0.55644
 RFO step:  Lambda=-1.21004931D-04 EMin= 1.60000000D-01
 Linear search not attempted -- first point.
 Iteration  1 RMS(Cart)=  0.01529455 RMS(Int)=  0.00013979
 Iteration  2 RMS(Cart)=  0.00012253 RMS(Int)=  0.00000000
 Iteration  3 RMS(Cart)=  0.00000000 RMS(Int)=  0.00000000
 ClnCor:  largest displacement from symmetrization is 8.67D-16 for atom     3.
 Variable       Old X    -DE/DX   Delta X   Delta X   Delta X     New X
                                 (Linear)    (Quad)   (Total)
    R1        1.81264   0.00006   0.00000   0.00010   0.00010   1.81275
    R2        1.81264   0.00006   0.00000   0.00010   0.00010   1.81275
    A1        1.87144  -0.00440   0.00000  -0.02749  -0.02749   1.84395
         Item               Value     Threshold  Converged?
 Maximum Force            0.004402     0.000450     NO 
 RMS     Force            0.002542     0.000300     NO 
 Maximum Displacement     0.014834     0.001800     NO 
 RMS     Displacement     0.015354     0.001200     NO 
 Predicted change in Energy=-6.054822D-05
 GradGradGradGradGradGradGradGradGradGradGradGradGradGradGradGradGradGrad

                          Input orientation:                          
 ---------------------------------------------------------------------
 Center     Atomic      Atomic             Coordinates (Angstroms)
 Number     Number       Type             X           Y           Z
 ---------------------------------------------------------------------
      1          8           0        0.000000    0.070732   -0.000000
      2          1           0       -0.764340   -0.508901   -0.000000
      3          1           0        0.764340   -0.508901    0.000000
 ---------------------------------------------------------------------
                    Distance matrix (angstroms):
                    1          2          3
     1  O    0.000000
     2  H    0.959265   0.000000
     3  H    0.959265   1.528680   0.000000
 Stoichiometry    H2O
 Framework group  C2V[C2(O),SGV(H2)]
 Deg. of freedom     2
 Full point group                 C2V     NOp   4
 Largest Abelian subgroup         C2V     NOp   4
 Largest concise Abelian subgroup C2      NOp   2
                         Standard orientation:                         
 ---------------------------------------------------------------------
 Center     Atomic      Atomic             Coordinates (Angstroms)
 Number     Number       Type             X           Y           Z
 ---------------------------------------------------------------------
      1          8           0        0.000000    0.000000    0.115926
      2          1           0       -0.000000    0.764340   -0.463706
      3          1           0       -0.000000   -0.764340   -0.463706
 ---------------------------------------------------------------------
 Rotational constants (GHZ):         840.3151171         429.1696013         284.0819575
 Standard basis: def2TZVP (5D, 7F)
 There are    22 symmetry adapted cartesian basis functions of A1  symmetry.
 There are     4 symmetry adapted cartesian basis functions of A2  symmetry.
 There are     9 symmetry adapted cartesian basis functions of B1  symmetry.
 There are    13 symmetry adapted cartesian basis functions of B2  symmetry.
 There are    19 symmetry adapted basis functions of A1  symmetry.
 There are     4 symmetry adapted basis functions of A2  symmetry.
 There are     8 symmetry adapted basis functions of B1  symmetry.
 There are    12 symmetry adapted basis functions of B2  symmetry.
    43 basis functions,    67 primitive gaussians,    48 cartesian basis functions
     5 alpha electrons        5 beta electrons
       nuclear repulsion energy         9.1725444551 Hartrees.
 NAtoms=    3 NActive=    3 NUniq=    2 SFac= 2.25D+00 NAtFMM=   60 NAOKFM=F Big=F
 Integral buffers will be    131072 words long.
 Raffenetti 2 integral format.
 Two-electron integral symmetry is turned on.
 One-electron integrals computed using PRISM.
   4 Symmetry operations used in ECPInt.
 ECPInt:  NShTT=     190 NPrTT=     556 LenC2=     191 LenP2D=     543.
 LDataN:  DoStor=T MaxTD1= 6 Len=  172
 NBasis=    43 RedAO= T EigKep=  8.38D-03  NBF=    19     4     8    12
 NBsUse=    43 1.00D-06 EigRej= -1.00D+00 NBFU=    19     4     8    12
 Initial guess from the checkpoint file:  "/home/svss/projects/Project-Philicity/GS/hydrocarbon/set-1/GS/mol_30_hc/mol_30_hc.chk"
 B after Tr=     0.000000   -0.000000    0.000000
         Rot=    1.000000   -0.000000    0.000000   -0.000000 Ang=   0.00 deg.
 Initial guess orbital symmetries:
       Occupied  (A1) (A1) (B2) (A1) (B1)
       Virtual   (A1) (B2) (B2) (A1) (B1) (A1) (B2) (A1) (A1) (A2)
                 (B1) (B2) (A1) (B2) (A1) (B1) (A2) (B2) (A1) (B2)
                 (A1) (B1) (A1) (A1) (B2) (B1) (A1) (B1) (A2) (B2)
                 (B2) (A1) (B1) (A2) (A1) (A1) (B2) (A1)
 Keep R1 ints in memory in symmetry-blocked form, NReq=7438562.
 Requested convergence on RMS density matrix=1.00D-08 within 128 cycles.
 Requested convergence on MAX density matrix=1.00D-06.
 Requested convergence on             energy=1.00D-06.
 No special actions if energy rises.
 SCF Done:  E(RM062X) =  -76.4260812925     A.U. after    7 cycles
            NFock=  7  Conv=0.94D-08     -V/T= 2.0037
   4 Symmetry operations used in ECPInt.
 ECPInt:  NShTT=     190 NPrTT=     556 LenC2=     191 LenP2D=     543.
 LDataN:  DoStor=T MaxTD1= 7 Len=  274
 Calling FoFJK, ICntrl=      2127 FMM=F ISym2X=1 I1Cent= 0 IOpClX= 0 NMat=1 NMatS=1 NMatT=0.
 ***** Axes restored to original set *****
 -------------------------------------------------------------------
 Center     Atomic                   Forces (Hartrees/Bohr)
 Number     Number              X              Y              Z
 -------------------------------------------------------------------
      1        8          -0.000000000    0.001175603    0.000000000
      2        1          -0.000541558   -0.000587801   -0.000000000
      3        1           0.000541558   -0.000587801   -0.000000000
 -------------------------------------------------------------------
 Cartesian Forces:  Max     0.001175603 RMS     0.000543613

 GradGradGradGradGradGradGradGradGradGradGradGradGradGradGradGradGradGrad
 Berny optimization.
 Using GEDIIS/GDIIS optimizer.
 FormGI is forming the generalized inverse of G from B-inverse, IUseBI=4.
 Internal  Forces:  Max     0.000786689 RMS     0.000659092
 Search for a local minimum.
 Step number   2 out of a maximum of   20
 All quantities printed in internal units (Hartrees-Bohrs-Radians)
 Mixed Optimization -- En-DIIS/RFO-DIIS
 Update second derivatives using D2CorX and points    1    2
 DE= -6.44D-05 DEPred=-6.05D-05 R= 1.06D+00
 TightC=F SS=  1.41D+00  RLast= 2.75D-02 DXNew= 5.0454D-01 8.2468D-02
 Trust test= 1.06D+00 RLast= 2.75D-02 DXMaxT set to 3.00D-01
 The second derivative matrix:
                          R1        R2        A1
           R1           0.56108
           R2           0.00464   0.56108
           A1           0.02865   0.02865   0.15103
 ITU=  1  0
 Use linear search instead of GDIIS.
     Eigenvalues ---    0.14711   0.55644   0.56964
 RFO step:  Lambda=-2.48868007D-06 EMin= 1.47108385D-01
 Quartic linear search produced a step of  0.06227.
 Iteration  1 RMS(Cart)=  0.00119058 RMS(Int)=  0.00000142
 Iteration  2 RMS(Cart)=  0.00000160 RMS(Int)=  0.00000000
 Iteration  3 RMS(Cart)=  0.00000000 RMS(Int)=  0.00000000
 ClnCor:  largest displacement from symmetrization is 7.02D-16 for atom     3.
 Variable       Old X    -DE/DX   Delta X   Delta X   Delta X     New X
                                 (Linear)    (Quad)   (Total)
    R1        1.81275   0.00079   0.00001   0.00150   0.00150   1.81425
    R2        1.81275   0.00079   0.00001   0.00150   0.00150   1.81425
    A1        1.84395  -0.00026  -0.00171  -0.00053  -0.00224   1.84171
         Item               Value     Threshold  Converged?
 Maximum Force            0.000787     0.000450     NO 
 RMS     Force            0.000659     0.000300     NO 
 Maximum Displacement     0.001684     0.001800     YES
 RMS     Displacement     0.001191     0.001200     YES
 Predicted change in Energy=-1.473887D-06
 GradGradGradGradGradGradGradGradGradGradGradGradGradGradGradGradGradGrad

                          Input orientation:                          
 ---------------------------------------------------------------------
 Center     Atomic      Atomic             Coordinates (Angstroms)
 Number     Number       Type             X           Y           Z
 ---------------------------------------------------------------------
      1          8           0       -0.000000    0.071623    0.000000
      2          1           0       -0.764324   -0.509346   -0.000000
      3          1           0        0.764324   -0.509346    0.000000
 ---------------------------------------------------------------------
                    Distance matrix (angstroms):
                    1          2          3
     1  O    0.000000
     2  H    0.960061   0.000000
     3  H    0.960061   1.528649   0.000000
 Stoichiometry    H2O
 Framework group  C2V[C2(O),SGV(H2)]
 Deg. of freedom     2
 Full point group                 C2V     NOp   4
 Largest Abelian subgroup         C2V     NOp   4
 Largest concise Abelian subgroup C2      NOp   2
                         Standard orientation:                         
 ---------------------------------------------------------------------
 Center     Atomic      Atomic             Coordinates (Angstroms)
 Number     Number       Type             X           Y           Z
 ---------------------------------------------------------------------
      1          8           0        0.000000   -0.000000    0.116194
      2          1           0        0.000000    0.764324   -0.464775
      3          1           0       -0.000000   -0.764324   -0.464775
 ---------------------------------------------------------------------
 Rotational constants (GHZ):         836.4530325         429.1870688         283.6468478
 Standard basis: def2TZVP (5D, 7F)
 There are    22 symmetry adapted cartesian basis functions of A1  symmetry.
 There are     4 symmetry adapted cartesian basis functions of A2  symmetry.
 There are     9 symmetry adapted cartesian basis functions of B1  symmetry.
 There are    13 symmetry adapted cartesian basis functions of B2  symmetry.
 There are    19 symmetry adapted basis functions of A1  symmetry.
 There are     4 symmetry adapted basis functions of A2  symmetry.
 There are     8 symmetry adapted basis functions of B1  symmetry.
 There are    12 symmetry adapted basis functions of B2  symmetry.
    43 basis functions,    67 primitive gaussians,    48 cartesian basis functions
     5 alpha electrons        5 beta electrons
       nuclear repulsion energy         9.1652348472 Hartrees.
 NAtoms=    3 NActive=    3 NUniq=    2 SFac= 2.25D+00 NAtFMM=   60 NAOKFM=F Big=F
 Integral buffers will be    131072 words long.
 Raffenetti 2 integral format.
 Two-electron integral symmetry is turned on.
 One-electron integrals computed using PRISM.
   4 Symmetry operations used in ECPInt.
 ECPInt:  NShTT=     190 NPrTT=     556 LenC2=     191 LenP2D=     543.
 LDataN:  DoStor=T MaxTD1= 6 Len=  172
 NBasis=    43 RedAO= T EigKep=  8.41D-03  NBF=    19     4     8    12
 NBsUse=    43 1.00D-06 EigRej= -1.00D+00 NBFU=    19     4     8    12
 Initial guess from the checkpoint file:  "/home/svss/projects/Project-Philicity/GS/hydrocarbon/set-1/GS/mol_30_hc/mol_30_hc.chk"
 B after Tr=     0.000000   -0.000000   -0.000000
         Rot=    1.000000    0.000000    0.000000   -0.000000 Ang=   0.00 deg.
 Initial guess orbital symmetries:
       Occupied  (A1) (A1) (B2) (A1) (B1)
       Virtual   (A1) (B2) (B2) (A1) (B1) (A1) (B2) (A1) (A1) (A2)
                 (B1) (B2) (A1) (B2) (A1) (B1) (A2) (B2) (A1) (B2)
                 (A1) (B1) (A1) (A1) (B2) (B1) (A1) (B1) (A2) (B2)
                 (B2) (A1) (B1) (A2) (A1) (A1) (B2) (A1)
 Keep R1 ints in memory in symmetry-blocked form, NReq=7438562.
 Requested convergence on RMS density matrix=1.00D-08 within 128 cycles.
 Requested convergence on MAX density matrix=1.00D-06.
 Requested convergence on             energy=1.00D-06.
 No special actions if energy rises.
 SCF Done:  E(RM062X) =  -76.4260828031     A.U. after    7 cycles
            NFock=  7  Conv=0.22D-08     -V/T= 2.0037
   4 Symmetry operations used in ECPInt.
 ECPInt:  NShTT=     190 NPrTT=     556 LenC2=     191 LenP2D=     543.
 LDataN:  DoStor=T MaxTD1= 7 Len=  274
 Calling FoFJK, ICntrl=      2127 FMM=F ISym2X=1 I1Cent= 0 IOpClX= 0 NMat=1 NMatS=1 NMatT=0.
 ***** Axes restored to original set *****
 -------------------------------------------------------------------
 Center     Atomic                   Forces (Hartrees/Bohr)
 Number     Number              X              Y              Z
 -------------------------------------------------------------------
      1        8          -0.000000000    0.000033961    0.000000000
      2        1          -0.000022264   -0.000016981   -0.000000000
      3        1           0.000022264   -0.000016981   -0.000000000
 -------------------------------------------------------------------
 Cartesian Forces:  Max     0.000033961 RMS     0.000017389

 GradGradGradGradGradGradGradGradGradGradGradGradGradGradGradGradGradGrad
 Berny optimization.
 Using GEDIIS/GDIIS optimizer.
 FormGI is forming the generalized inverse of G from B-inverse, IUseBI=4.
 Internal  Forces:  Max     0.000028000 RMS     0.000022862
 Search for a local minimum.
 Step number   3 out of a maximum of   20
 All quantities printed in internal units (Hartrees-Bohrs-Radians)
 Mixed Optimization -- En-DIIS/RFO-DIIS
 Swapping is turned off.
 Update second derivatives using D2CorX and points    1    2    3
 DE= -1.51D-06 DEPred=-1.47D-06 R= 1.02D+00
 TightC=F SS=  1.41D+00  RLast= 3.09D-03 DXNew= 5.0454D-01 9.2627D-03
 Trust test= 1.02D+00 RLast= 3.09D-03 DXMaxT set to 3.00D-01
 The second derivative matrix:
                          R1        R2        A1
           R1           0.55181
           R2          -0.00462   0.55181
           A1           0.02870   0.02870   0.15284
 ITU=  1  1  0
     Eigenvalues ---    0.14870   0.55133   0.55644
 En-DIIS/RFO-DIIS/Sim-DIIS IScMMF=       -3 using points:     3    2
 RFO step:  Lambda= 0.00000000D+00.
 DidBck=F Rises=F RFO-DIIS coefs:    1.02121   -0.02121
 Iteration  1 RMS(Cart)=  0.00003308 RMS(Int)=  0.00000000
 Iteration  2 RMS(Cart)=  0.00000000 RMS(Int)=  0.00000000
 ClnCor:  largest displacement from symmetrization is 8.67D-16 for atom     3.
 Variable       Old X    -DE/DX   Delta X   Delta X   Delta X     New X
                                 (Linear)    (Quad)   (Total)
    R1        1.81425   0.00003   0.00003   0.00002   0.00005   1.81430
    R2        1.81425   0.00003   0.00003   0.00002   0.00005   1.81430
    A1        1.84171  -0.00000  -0.00005   0.00003  -0.00002   1.84169
         Item               Value     Threshold  Converged?
 Maximum Force            0.000028     0.000450     YES
 RMS     Force            0.000023     0.000300     YES
 Maximum Displacement     0.000031     0.001800     YES
 RMS     Displacement     0.000033     0.001200     YES
 Predicted change in Energy=-1.463266D-09
 Optimization completed.
    -- Stationary point found.
                           ----------------------------
                           !   Optimized Parameters   !
                           ! (Angstroms and Degrees)  !
 --------------------------                            --------------------------
 ! Name  Definition              Value          Derivative Info.                !
 --------------------------------------------------------------------------------
 ! R1    R(1,2)                  0.9601         -DE/DX =    0.0                 !
 ! R2    R(1,3)                  0.9601         -DE/DX =    0.0                 !
 ! A1    A(2,1,3)              105.5225         -DE/DX =    0.0                 !
 --------------------------------------------------------------------------------
 GradGradGradGradGradGradGradGradGradGradGradGradGradGradGradGradGradGrad

                          Input orientation:                          
 ---------------------------------------------------------------------
 Center     Atomic      Atomic             Coordinates (Angstroms)
 Number     Number       Type             X           Y           Z
 ---------------------------------------------------------------------
      1          8           0        0.000000    0.071623    0.000000
      2          1           0       -0.764324   -0.509346   -0.000000
      3          1           0        0.764324   -0.509346    0.000000
 ---------------------------------------------------------------------
                    Distance matrix (angstroms):
                    1          2          3
     1  O    0.000000
     2  H    0.960061   0.000000
     3  H    0.960061   1.528649   0.000000
 Stoichiometry    H2O
 Framework group  C2V[C2(O),SGV(H2)]
 Deg. of freedom     2
 Full point group                 C2V     NOp   4
 Largest Abelian subgroup         C2V     NOp   4
 Largest concise Abelian subgroup C2      NOp   2
                         Standard orientation:                         
 ---------------------------------------------------------------------
 Center     Atomic      Atomic             Coordinates (Angstroms)
 Number     Number       Type             X           Y           Z
 ---------------------------------------------------------------------
      1          8           0       -0.000000    0.000000    0.116194
      2          1           0       -0.000000    0.764324   -0.464775
      3          1           0       -0.000000   -0.764324   -0.464775
 ---------------------------------------------------------------------
 Rotational constants (GHZ):         836.4530325         429.1870688         283.6468478

 **********************************************************************

            Population analysis using the SCF Density.

 **********************************************************************

 Orbital symmetries:
       Occupied  (A1) (A1) (B2) (A1) (B1)
       Virtual   (A1) (B2) (B2) (A1) (B1) (A1) (B2) (A1) (A1) (A2)
                 (B1) (B2) (A1) (B2) (A1) (B1) (A2) (B2) (A1) (B2)
                 (A1) (B1) (A1) (A1) (B2) (B1) (A1) (B1) (A2) (B2)
                 (B2) (A1) (B1) (A2) (A1) (A1) (B2) (A1)
 The electronic state is 1-A1.
 Alpha  occ. eigenvalues --  -19.62205  -1.13218  -0.60861  -0.46987  -0.39857
 Alpha virt. eigenvalues --    0.05365   0.12242   0.40980   0.45544   0.48241
 Alpha virt. eigenvalues --    0.49577   0.62204   0.63845   1.22361   1.24083
 Alpha virt. eigenvalues --    1.35138   1.57105   1.68107   1.79588   2.02350
 Alpha virt. eigenvalues --    2.09975   2.15232   2.32738   2.43534   2.65342
 Alpha virt. eigenvalues --    2.67361   2.68569   2.81504   3.65636   3.96623
 Alpha virt. eigenvalues --    5.12599   5.22151   5.39847   5.41316   5.48553
 Alpha virt. eigenvalues --    6.03026   6.21602   6.31530   6.38307   6.41585
 Alpha virt. eigenvalues --    6.90788   6.97747  43.40912
          Condensed to atoms (all electrons):
               1          2          3
     1  O    8.043308   0.306903   0.306903
     2  H    0.306903   0.390451  -0.025911
     3  H    0.306903  -0.025911   0.390451
 Mulliken charges:
               1
     1  O   -0.657114
     2  H    0.328557
     3  H    0.328557
 Sum of Mulliken charges =  -0.00000
 Mulliken charges with hydrogens summed into heavy atoms:
               1
     1  O   -0.000000
 Electronic spatial extent (au):  <R**2>=             19.5964
 Charge=             -0.0000 electrons
 Dipole moment (field-independent basis, Debye):
    X=             -0.0000    Y=             -0.0000    Z=             -2.0905  Tot=              2.0905
 Quadrupole moment (field-independent basis, Debye-Ang):
   XX=             -7.5602   YY=             -4.2872   ZZ=             -6.3045
   XY=              0.0000   XZ=              0.0000   YZ=              0.0000
 Traceless Quadrupole moment (field-independent basis, Debye-Ang):
   XX=             -1.5095   YY=              1.7634   ZZ=             -0.2539
   XY=              0.0000   XZ=              0.0000   YZ=              0.0000
 Octapole moment (field-independent basis, Debye-Ang**2):
  XXX=              0.0000  YYY=              0.0000  ZZZ=             -1.3823  XYY=             -0.0000
  XXY=             -0.0000  XXZ=             -0.3723  XZZ=             -0.0000  YZZ=              0.0000
  YYZ=             -1.3766  XYZ=             -0.0000
 Hexadecapole moment (field-independent basis, Debye-Ang**3):
 XXXX=             -6.4463 YYYY=             -6.1284 ZZZZ=             -7.1196 XXXY=             -0.0000
 XXXZ=             -0.0000 YYYX=             -0.0000 YYYZ=              0.0000 ZZZX=             -0.0000
 ZZZY=             -0.0000 XXYY=             -2.3916 XXZZ=             -2.3131 YYZZ=             -1.8805
 XXYZ=              0.0000 YYXZ=              0.0000 ZZXY=              0.0000
 N-N= 9.165234847233D+00 E-N=-1.991571586127D+02  KE= 7.614170182328D+01
 Symmetry A1   KE= 6.800133131611D+01
 Symmetry A2   KE= 4.166165042734D-35
 Symmetry B1   KE= 4.513996409732D+00
 Symmetry B2   KE= 3.626374097433D+00
 Unable to Open any file for archive entry.
 1\1\GINC-NODE12\FOpt\RM062X\def2TZVP\H2O1\SVSS\20-Jun-2022\0\\# opt fr
 eq M062X/def2tzvp\\converted from /home/svss/projects/Project-Philicit
 y/GS/hydrocarbon/set-1/GS/mol_30_hc/mol_30_hc_cregen_best.xyz\\0,1\O,0
 .,0.0716226602,0.\H,-0.7643243862,-0.5093463301,0.\H,0.7643243862,-0.5
 093463301,0.\\Version=AS64L-G16RevC.01\State=1-A1\HF=-76.4260828\RMSD=
 2.155e-09\RMSF=1.739e-05\Dipole=0.,-0.8224637,0.\Quadrupole=1.3110641,
 -0.1887617,-1.1223024,0.,0.,0.\PG=C02V [C2(O1),SGV(H2)]\\@
 The archive entry for this job was punched.


 HOW IS IT THAT THE SKY FEEDS THE STARS?

                           -- LUCRETIUS
 Job cpu time:       0 days  0 hours  0 minutes 16.8 seconds.
 Elapsed time:       0 days  0 hours  0 minutes  3.9 seconds.
 File lengths (MBytes):  RWF=     17 Int=      0 D2E=      0 Chk=      2 Scr=      2
 Normal termination of Gaussian 16 at Mon Jun 20 19:43:59 2022.
 Link1:  Proceeding to internal job step number  2.
 --------------------------------------------------------------------
 #N Geom=AllCheck Guess=TCheck SCRF=Check GenChk RM062X/def2TZVP Freq
 --------------------------------------------------------------------
 1/10=4,29=7,30=1,38=1,40=1/1,3;
 2/12=2,40=1/2;
 3/5=44,7=101,11=2,14=-4,25=1,30=1,70=2,71=2,74=-55,116=1,140=1/1,2,3;
 4/5=101/1;
 5/5=2,38=6,98=1/2;
 8/6=4,10=90,11=11/1;
 11/6=1,8=1,9=11,15=111,16=1/1,2,10;
 10/6=1/2;
 6/7=2,8=2,9=2,10=2,28=1/1;
 7/8=1,10=1,25=1/1,2,3,16;
 1/10=4,30=1/3;
 99//99;
 Structure from the checkpoint file:  "/home/svss/projects/Project-Philicity/GS/hydrocarbon/set-1/GS/mol_30_hc/mol_30_hc.chk"
 ----------------------------------------------------------------------
 converted from /home/svss/projects/Project-Philicity/GS/hydrocarbon/se
 t-1/GS/mol_30_hc/mol_30_hc_cregen_best.xyz
 ----------------------------------------------------------------------
 Charge =  0 Multiplicity = 1
 Redundant internal coordinates found in file.  (old form).
 O,0,0.,0.0716226602,0.
 H,0,-0.7643243862,-0.5093463301,0.
 H,0,0.7643243862,-0.5093463301,0.
 Recover connectivity data from disk.

 GradGradGradGradGradGradGradGradGradGradGradGradGradGradGradGradGradGrad
 Berny optimization.
 Initialization pass.
                           ----------------------------
                           !    Initial Parameters    !
                           ! (Angstroms and Degrees)  !
 --------------------------                            --------------------------
 ! Name  Definition              Value          Derivative Info.                !
 --------------------------------------------------------------------------------
 ! R1    R(1,2)                  0.9601         calculate D2E/DX2 analytically  !
 ! R2    R(1,3)                  0.9601         calculate D2E/DX2 analytically  !
 ! A1    A(2,1,3)              105.5225         calculate D2E/DX2 analytically  !
 --------------------------------------------------------------------------------
 Trust Radius=3.00D-01 FncErr=1.00D-07 GrdErr=1.00D-07 EigMax=2.50D+02 EigMin=1.00D-04
 Number of steps in this run=      2 maximum allowed number of steps=      2.
 GradGradGradGradGradGradGradGradGradGradGradGradGradGradGradGradGradGrad

                          Input orientation:                          
 ---------------------------------------------------------------------
 Center     Atomic      Atomic             Coordinates (Angstroms)
 Number     Number       Type             X           Y           Z
 ---------------------------------------------------------------------
      1          8           0        0.000000    0.071623    0.000000
      2          1           0       -0.764324   -0.509346   -0.000000
      3          1           0        0.764324   -0.509346    0.000000
 ---------------------------------------------------------------------
                    Distance matrix (angstroms):
                    1          2          3
     1  O    0.000000
     2  H    0.960061   0.000000
     3  H    0.960061   1.528649   0.000000
 Stoichiometry    H2O
 Framework group  C2V[C2(O),SGV(H2)]
 Deg. of freedom     2
 Full point group                 C2V     NOp   4
 Largest Abelian subgroup         C2V     NOp   4
 Largest concise Abelian subgroup C2      NOp   2
                         Standard orientation:                         
 ---------------------------------------------------------------------
 Center     Atomic      Atomic             Coordinates (Angstroms)
 Number     Number       Type             X           Y           Z
 ---------------------------------------------------------------------
      1          8           0        0.000000    0.000000    0.116194
      2          1           0       -0.000000    0.764324   -0.464775
      3          1           0       -0.000000   -0.764324   -0.464775
 ---------------------------------------------------------------------
 Rotational constants (GHZ):         836.4530325         429.1870688         283.6468478
 Standard basis: def2TZVP (5D, 7F)
 There are    22 symmetry adapted cartesian basis functions of A1  symmetry.
 There are     4 symmetry adapted cartesian basis functions of A2  symmetry.
 There are     9 symmetry adapted cartesian basis functions of B1  symmetry.
 There are    13 symmetry adapted cartesian basis functions of B2  symmetry.
 There are    19 symmetry adapted basis functions of A1  symmetry.
 There are     4 symmetry adapted basis functions of A2  symmetry.
 There are     8 symmetry adapted basis functions of B1  symmetry.
 There are    12 symmetry adapted basis functions of B2  symmetry.
    43 basis functions,    67 primitive gaussians,    48 cartesian basis functions
     5 alpha electrons        5 beta electrons
       nuclear repulsion energy         9.1652348472 Hartrees.
 NAtoms=    3 NActive=    3 NUniq=    2 SFac= 2.25D+00 NAtFMM=   60 NAOKFM=F Big=F
 Integral buffers will be    131072 words long.
 Raffenetti 2 integral format.
 Two-electron integral symmetry is turned on.
 One-electron integrals computed using PRISM.
   4 Symmetry operations used in ECPInt.
 ECPInt:  NShTT=     190 NPrTT=     556 LenC2=     191 LenP2D=     543.
 LDataN:  DoStor=T MaxTD1= 6 Len=  172
 NBasis=    43 RedAO= T EigKep=  8.41D-03  NBF=    19     4     8    12
 NBsUse=    43 1.00D-06 EigRej= -1.00D+00 NBFU=    19     4     8    12
 Initial guess from the checkpoint file:  "/home/svss/projects/Project-Philicity/GS/hydrocarbon/set-1/GS/mol_30_hc/mol_30_hc.chk"
 B after Tr=    -0.000000    0.000000    0.000000
         Rot=    1.000000    0.000000    0.000000   -0.000000 Ang=   0.00 deg.
 Initial guess orbital symmetries:
       Occupied  (A1) (A1) (B2) (A1) (B1)
       Virtual   (A1) (B2) (B2) (A1) (B1) (A1) (B2) (A1) (A1) (A2)
                 (B1) (B2) (A1) (B2) (A1) (B1) (A2) (B2) (A1) (B2)
                 (A1) (B1) (A1) (A1) (B2) (B1) (A1) (B1) (A2) (B2)
                 (B2) (A1) (B1) (A2) (A1) (A1) (B2) (A1)
 Keep R1 ints in memory in symmetry-blocked form, NReq=7438562.
 Requested convergence on RMS density matrix=1.00D-08 within 128 cycles.
 Requested convergence on MAX density matrix=1.00D-06.
 Requested convergence on             energy=1.00D-06.
 No special actions if energy rises.
 SCF Done:  E(RM062X) =  -76.4260828031     A.U. after    1 cycles
            NFock=  1  Conv=0.13D-09     -V/T= 2.0037
 DoSCS=F DFT=T ScalE2(SS,OS)=  1.000000  1.000000
 Range of M.O.s used for correlation:     1    43
 NBasis=    43 NAE=     5 NBE=     5 NFC=     0 NFV=     0
 NROrb=     43 NOA=     5 NOB=     5 NVA=    38 NVB=    38
   4 Symmetry operations used in ECPInt.
 ECPInt:  NShTT=     190 NPrTT=     556 LenC2=     191 LenP2D=     543.
 LDataN:  DoStor=T MaxTD1= 7 Len=  274
 Symmetrizing basis deriv contribution to polar:
 IMax=3 JMax=2 DiffMx= 0.00D+00
 G2DrvN: will do     4 centers at a time, making    1 passes.
 Calling FoFCou, ICntrl=  3107 FMM=F I1Cent=   0 AccDes= 0.00D+00.
 End of G2Drv F.D. properties file   721 does not exist.
 End of G2Drv F.D. properties file   722 does not exist.
 End of G2Drv F.D. properties file   788 does not exist.
          IDoAtm=111
          Differentiating once with respect to electric field.
                with respect to dipole field.
          Differentiating once with respect to nuclear coordinates.
 Keep R1 ints in memory in symmetry-blocked form, NReq=7413429.
          There are     9 degrees of freedom in the 1st order CPHF.  IDoFFX=4 NUNeed=     9.
      9 vectors produced by pass  0 Test12= 2.11D-15 1.11D-08 XBig12= 2.47D+00 9.67D-01.
 AX will form     9 AO Fock derivatives at one time.
      9 vectors produced by pass  1 Test12= 2.11D-15 1.11D-08 XBig12= 2.55D-01 2.20D-01.
      9 vectors produced by pass  2 Test12= 2.11D-15 1.11D-08 XBig12= 4.58D-03 2.70D-02.
      9 vectors produced by pass  3 Test12= 2.11D-15 1.11D-08 XBig12= 4.46D-05 2.40D-03.
      9 vectors produced by pass  4 Test12= 2.11D-15 1.11D-08 XBig12= 1.43D-07 1.32D-04.
      8 vectors produced by pass  5 Test12= 2.11D-15 1.11D-08 XBig12= 4.43D-10 8.21D-06.
      4 vectors produced by pass  6 Test12= 2.11D-15 1.11D-08 XBig12= 1.35D-12 3.37D-07.
      1 vectors produced by pass  7 Test12= 2.11D-15 1.11D-08 XBig12= 3.17D-15 2.38D-08.
 InvSVY:  IOpt=1 It=  1 EMax= 2.22D-16
 Solved reduced A of dimension    58 with     9 vectors.
 Isotropic polarizability for W=    0.000000        6.58 Bohr**3.
 End of Minotr F.D. properties file   721 does not exist.
 End of Minotr F.D. properties file   722 does not exist.
 End of Minotr F.D. properties file   788 does not exist.

 **********************************************************************

            Population analysis using the SCF Density.

 **********************************************************************

 Orbital symmetries:
       Occupied  (A1) (A1) (B2) (A1) (B1)
       Virtual   (A1) (B2) (B2) (A1) (B1) (A1) (B2) (A1) (A1) (A2)
                 (B1) (B2) (A1) (B2) (A1) (B1) (A2) (B2) (A1) (B2)
                 (A1) (B1) (A1) (A1) (B2) (B1) (A1) (B1) (A2) (B2)
                 (B2) (A1) (B1) (A2) (A1) (A1) (B2) (A1)
 The electronic state is 1-A1.
 Alpha  occ. eigenvalues --  -19.62205  -1.13218  -0.60861  -0.46987  -0.39857
 Alpha virt. eigenvalues --    0.05365   0.12242   0.40980   0.45544   0.48241
 Alpha virt. eigenvalues --    0.49577   0.62204   0.63845   1.22361   1.24083
 Alpha virt. eigenvalues --    1.35138   1.57105   1.68107   1.79588   2.02350
 Alpha virt. eigenvalues --    2.09975   2.15232   2.32738   2.43534   2.65342
 Alpha virt. eigenvalues --    2.67361   2.68569   2.81504   3.65636   3.96623
 Alpha virt. eigenvalues --    5.12599   5.22151   5.39847   5.41316   5.48553
 Alpha virt. eigenvalues --    6.03026   6.21602   6.31530   6.38307   6.41585
 Alpha virt. eigenvalues --    6.90788   6.97747  43.40912
          Condensed to atoms (all electrons):
               1          2          3
     1  O    8.043308   0.306903   0.306903
     2  H    0.306903   0.390451  -0.025911
     3  H    0.306903  -0.025911   0.390451
 Mulliken charges:
               1
     1  O   -0.657114
     2  H    0.328557
     3  H    0.328557
 Sum of Mulliken charges =   0.00000
 Mulliken charges with hydrogens summed into heavy atoms:
               1
     1  O    0.000000
 APT charges:
               1
     1  O   -0.565197
     2  H    0.282599
     3  H    0.282599
 Sum of APT charges =  -0.00000
 APT charges with hydrogens summed into heavy atoms:
               1
     1  O   -0.000000
 Electronic spatial extent (au):  <R**2>=             19.5964
 Charge=              0.0000 electrons
 Dipole moment (field-independent basis, Debye):
    X=             -0.0000    Y=             -0.0000    Z=             -2.0905  Tot=              2.0905
 Quadrupole moment (field-independent basis, Debye-Ang):
   XX=             -7.5602   YY=             -4.2872   ZZ=             -6.3045
   XY=              0.0000   XZ=              0.0000   YZ=             -0.0000
 Traceless Quadrupole moment (field-independent basis, Debye-Ang):
   XX=             -1.5095   YY=              1.7634   ZZ=             -0.2539
   XY=              0.0000   XZ=              0.0000   YZ=             -0.0000
 Octapole moment (field-independent basis, Debye-Ang**2):
  XXX=              0.0000  YYY=              0.0000  ZZZ=             -1.3823  XYY=             -0.0000
  XXY=              0.0000  XXZ=             -0.3723  XZZ=             -0.0000  YZZ=             -0.0000
  YYZ=             -1.3766  XYZ=             -0.0000
 Hexadecapole moment (field-independent basis, Debye-Ang**3):
 XXXX=             -6.4463 YYYY=             -6.1284 ZZZZ=             -7.1196 XXXY=             -0.0000
 XXXZ=             -0.0000 YYYX=             -0.0000 YYYZ=              0.0000 ZZZX=             -0.0000
 ZZZY=             -0.0000 XXYY=             -2.3916 XXZZ=             -2.3131 YYZZ=             -1.8805
 XXYZ=              0.0000 YYXZ=              0.0000 ZZXY=              0.0000
 N-N= 9.165234847233D+00 E-N=-1.991571585905D+02  KE= 7.614170181044D+01
 Symmetry A1   KE= 6.800133129982D+01
 Symmetry A2   KE= 3.896642612204D-35
 Symmetry B1   KE= 4.513996406027D+00
 Symmetry B2   KE= 3.626374104588D+00
  Exact polarizability:       5.212      -0.000       8.022      -0.000      -0.000       6.498
 Approx polarizability:       4.891       0.000       8.427       0.000       0.000       6.632
   4 Symmetry operations used in ECPInt.
 ECPInt:  NShTT=     190 NPrTT=     556 LenC2=     191 LenP2D=     543.
 LDataN:  DoStor=T MaxTD1= 8 Len=  415
 Calling FoFJK, ICntrl=    100127 FMM=F ISym2X=1 I1Cent= 0 IOpClX= 0 NMat=1 NMatS=1 NMatT=0.
 Full mass-weighted force constant matrix:
 Low frequencies ---   -0.0020   -0.0018    0.0009   54.9531   93.4672  108.8681
 Low frequencies --- 1608.0719 3864.7291 3971.4884
 Diagonal vibrational polarizability:
        0.0000000       0.1133252       0.9187463
 Harmonic frequencies (cm**-1), IR intensities (KM/Mole), Raman scattering
 activities (A**4/AMU), depolarization ratios for plane and unpolarized
 incident light, reduced masses (AMU), force constants (mDyne/A),
 and normal coordinates:
                      1                      2                      3
                     A1                     A1                     B2
 Frequencies --   1608.0719              3864.7291              3971.4884
 Red. masses --      1.0832                 1.0447                 1.0829
 Frc consts  --      1.6504                 9.1931                10.0631
 IR Inten    --     86.2783                11.5750                66.4202
  Atom  AN      X      Y      Z        X      Y      Z        X      Y      Z
     1   8    -0.00   0.00  -0.07     0.00  -0.00   0.05    -0.00  -0.07  -0.00
     2   1     0.00   0.43   0.56     0.00   0.59  -0.39    -0.00   0.56  -0.43
     3   1     0.00  -0.43   0.56    -0.00  -0.59  -0.39     0.00   0.56   0.43

 -------------------
 - Thermochemistry -
 -------------------
 Temperature   298.150 Kelvin.  Pressure   1.00000 Atm.
 Atom     1 has atomic number  8 and mass  15.99491
 Atom     2 has atomic number  1 and mass   1.00783
 Atom     3 has atomic number  1 and mass   1.00783
 Molecular mass:    18.01056 amu.
 Principal axes and moments of inertia in atomic units:
                           1         2         3
     Eigenvalues --     2.15761   4.20502   6.36263
           X            0.00000   0.00000   1.00000
           Y            1.00000   0.00000  -0.00000
           Z            0.00000   1.00000   0.00000
 This molecule is an asymmetric top.
 Rotational symmetry number  2.
 Rotational temperatures (Kelvin)     40.14342    20.59773    13.61290
 Rotational constants (GHZ):         836.45303   429.18707   283.64685
 Zero-point vibrational energy      56489.4 (Joules/Mol)
                                   13.50129 (Kcal/Mol)
 Vibrational temperatures:   2313.66  5560.48  5714.09
          (Kelvin)
 
 Zero-point correction=                           0.021516 (Hartree/Particle)
 Thermal correction to Energy=                    0.024351
 Thermal correction to Enthalpy=                  0.025296
 Thermal correction to Gibbs Free Energy=         0.003881
 Sum of electronic and zero-point Energies=            -76.404567
 Sum of electronic and thermal Energies=               -76.401731
 Sum of electronic and thermal Enthalpies=             -76.400787
 Sum of electronic and thermal Free Energies=          -76.422202
 
                     E (Thermal)             CV                S
                      KCal/Mol        Cal/Mol-Kelvin    Cal/Mol-Kelvin
 Total                   15.281              6.013             45.071
 Electronic               0.000              0.000              0.000
 Translational            0.889              2.981             34.608
 Rotational               0.889              2.981             10.455
 Vibrational             13.503              0.051              0.007
                       Q            Log10(Q)             Ln(Q)
 Total Bot       0.164029D-01         -1.785079         -4.110297
 Total V=0       0.129251D+09          8.111435         18.677269
 Vib (Bot)       0.126961D-09         -9.896329        -22.787140
 Vib (V=0)       0.100043D+01          0.000185          0.000427
 Electronic      0.100000D+01          0.000000          0.000000
 Translational   0.300431D+07          6.477745         14.915559
 Rotational      0.430036D+02          1.633505          3.761284
 ***** Axes restored to original set *****
 -------------------------------------------------------------------
 Center     Atomic                   Forces (Hartrees/Bohr)
 Number     Number              X              Y              Z
 -------------------------------------------------------------------
      1        8          -0.000000000    0.000033961   -0.000000000
      2        1          -0.000022263   -0.000016981   -0.000000000
      3        1           0.000022263   -0.000016981    0.000000000
 -------------------------------------------------------------------
 Cartesian Forces:  Max     0.000033961 RMS     0.000017389
 FormGI is forming the generalized inverse of G from B-inverse, IUseBI=4.

 GradGradGradGradGradGradGradGradGradGradGradGradGradGradGradGradGradGrad
 Berny optimization.
 Internal  Forces:  Max     0.000028000 RMS     0.000022862
 Search for a local minimum.
 Step number   1 out of a maximum of    2
 All quantities printed in internal units (Hartrees-Bohrs-Radians)
 Second derivative matrix not updated -- analytic derivatives used.
 The second derivative matrix:
                          R1        R2        A1
           R1           0.55169
           R2          -0.00538   0.55169
           A1           0.02908   0.02908   0.15343
 ITU=  0
     Eigenvalues ---    0.14917   0.55057   0.55707
 Angle between quadratic step and forces=  15.28 degrees.
 Linear search not attempted -- first point.
 Iteration  1 RMS(Cart)=  0.00003313 RMS(Int)=  0.00000000
 Iteration  2 RMS(Cart)=  0.00000000 RMS(Int)=  0.00000000
 ClnCor:  largest displacement from symmetrization is 1.68D-16 for atom     1.
 Variable       Old X    -DE/DX   Delta X   Delta X   Delta X     New X
                                 (Linear)    (Quad)   (Total)
    R1        1.81425   0.00003   0.00000   0.00005   0.00005   1.81430
    R2        1.81425   0.00003   0.00000   0.00005   0.00005   1.81430
    A1        1.84171  -0.00000   0.00000  -0.00002  -0.00002   1.84169
         Item               Value     Threshold  Converged?
 Maximum Force            0.000028     0.000450     YES
 RMS     Force            0.000023     0.000300     YES
 Maximum Displacement     0.000031     0.001800     YES
 RMS     Displacement     0.000033     0.001200     YES
 Predicted change in Energy=-1.466312D-09
 Optimization completed.
    -- Stationary point found.
                           ----------------------------
                           !   Optimized Parameters   !
                           ! (Angstroms and Degrees)  !
 --------------------------                            --------------------------
 ! Name  Definition              Value          Derivative Info.                !
 --------------------------------------------------------------------------------
 ! R1    R(1,2)                  0.9601         -DE/DX =    0.0                 !
 ! R2    R(1,3)                  0.9601         -DE/DX =    0.0                 !
 ! A1    A(2,1,3)              105.5225         -DE/DX =    0.0                 !
 --------------------------------------------------------------------------------
 GradGradGradGradGradGradGradGradGradGradGradGradGradGradGradGradGradGrad


 ----------------------------------------------------------------------

 Electric dipole moment (input orientation):
 (Debye = 10**-18 statcoulomb cm , SI units = C m)
                  (au)            (Debye)         (10**-30 SI)
   Tot        0.822464D+00      0.209049D+01      0.697314D+01
   x          0.000000D+00      0.000000D+00      0.000000D+00
   y         -0.822464D+00     -0.209049D+01     -0.697314D+01
   z          0.000000D+00      0.000000D+00      0.000000D+00

 Dipole polarizability, Alpha (input orientation).
 (esu units = cm**3 , SI units = C**2 m**2 J**-1)
 Alpha(0;0):
               (au)            (10**-24 esu)      (10**-40 SI)
   iso        0.657775D+01      0.974721D+00      0.108452D+01
   aniso      0.243642D+01      0.361040D+00      0.401712D+00
   xx         0.802246D+01      0.118881D+01      0.132272D+01
   yx         0.000000D+00      0.000000D+00      0.000000D+00
   yy         0.649829D+01      0.962948D+00      0.107142D+01
   zx         0.000000D+00      0.000000D+00      0.000000D+00
   zy         0.000000D+00      0.000000D+00      0.000000D+00
   zz         0.521249D+01      0.772411D+00      0.859423D+00

 ----------------------------------------------------------------------

 Dipole orientation:
     8          0.00000000          0.00000000         -0.13534721
     1         -1.44436376          0.00000000          0.96252507
     1          1.44436376         -0.00000000          0.96252507

 Electric dipole moment (dipole orientation):
 (Debye = 10**-18 statcoulomb cm , SI units = C m)
                  (au)            (Debye)         (10**-30 SI)
   Tot        0.822464D+00      0.209049D+01      0.697314D+01
   x          0.000000D+00      0.000000D+00      0.000000D+00
   y          0.000000D+00      0.000000D+00      0.000000D+00
   z          0.822464D+00      0.209049D+01      0.697314D+01

 Dipole polarizability, Alpha (dipole orientation).
 (esu units = cm**3 , SI units = C**2 m**2 J**-1)
 Alpha(0;0):
               (au)            (10**-24 esu)      (10**-40 SI)
   iso        0.657775D+01      0.974721D+00      0.108452D+01
   aniso      0.243642D+01      0.361040D+00      0.401712D+00
   xx         0.802246D+01      0.118881D+01      0.132272D+01
   yx         0.000000D+00      0.000000D+00      0.000000D+00
   yy         0.521249D+01      0.772411D+00      0.859423D+00
   zx         0.000000D+00      0.000000D+00      0.000000D+00
   zy         0.000000D+00      0.000000D+00      0.000000D+00
   zz         0.649829D+01      0.962948D+00      0.107142D+01

 ----------------------------------------------------------------------
 Unable to Open any file for archive entry.
 1\1\GINC-NODE12\Freq\RM062X\def2TZVP\H2O1\SVSS\20-Jun-2022\0\\#N Geom=
 AllCheck Guess=TCheck SCRF=Check GenChk RM062X/def2TZVP Freq\\converte
 d from /home/svss/projects/Project-Philicity/GS/hydrocarbon/set-1/GS/m
 ol_30_hc/mol_30_hc_cregen_best.xyz\\0,1\O,0.,0.0716226602,0.\H,-0.7643
 243862,-0.5093463301,0.\H,0.7643243862,-0.5093463301,0.\\Version=AS64L
 -G16RevC.01\State=1-A1\HF=-76.4260828\RMSD=1.346e-10\RMSF=1.739e-05\Ze
 roPoint=0.0215157\Thermal=0.0243514\ETot=-76.4017314\HTot=-76.4007873\
 GTot=-76.4222019\Dipole=0.,-0.8224637,0.\DipoleDeriv=-0.5382015,0.,0.,
 0.,-0.4088118,0.,0.,0.,-0.7485789,0.2691008,-0.0594393,0.,-0.0804558,0
 .2044059,0.,0.,0.,0.3742894,0.2691008,0.0594393,0.,0.0804558,0.2044059
 ,0.,0.,0.,0.3742894\Polar=8.0224557,0.,6.498295,0.,0.,5.2124868\Quadru
 pole=1.3110641,-0.1887617,-1.1223024,0.,0.,0.\PG=C02V [C2(O1),SGV(H2)]
 \NImag=0\\0.70617320,0.,0.45649466,0.,0.,0.00080290,-0.35308660,-0.209
 70698,0.,0.38217986,-0.26833399,-0.22824733,0.,0.23902048,0.21617322,0
 .,0.,-0.00040145,0.,0.,0.00036732,-0.35308660,0.20970698,0.,-0.0290932
 6,0.02931351,0.,0.38217986,0.26833399,-0.22824733,0.,-0.02931351,0.012
 07411,0.,-0.23902048,0.21617322,0.,0.,-0.00040145,0.,0.,0.00003413,0.,
 0.,0.00036732\\0.,-0.00003396,0.,0.00002226,0.00001698,0.,-0.00002226,
 0.00001698,0.\\\@
 The archive entry for this job was punched.


 Everywhere is walking distance if you have the time.
                                    -- Steven Wright
 Job cpu time:       0 days  0 hours  0 minutes 16.0 seconds.
 Elapsed time:       0 days  0 hours  0 minutes  2.9 seconds.
 File lengths (MBytes):  RWF=     17 Int=      0 D2E=      0 Chk=      2 Scr=      2
 Normal termination of Gaussian 16 at Mon Jun 20 19:44:03 2022.
