 Entering Gaussian System, Link 0=/opt/apps/Gaussian/G16C/g16/g16
 Input=/home/svss/projects/Project-Philicity/GS/hydrocarbon/set-1/GS/mol_20_hc/mol_20_hc.com
 Output=/home/svss/projects/Project-Philicity/GS/hydrocarbon/set-1/GS/mol_20_hc/mol_20_hc.log
 Initial command:
 /opt/apps/Gaussian/G16C/g16/l1.exe "/home/svss/projects/Project-Philicity/GS/hydrocarbon/set-1/Gau-200607.inp" -scrdir="/home/svss/projects/Project-Philicity/GS/hydrocarbon/set-1/"
 Entering Link 1 = /opt/apps/Gaussian/G16C/g16/l1.exe PID=    200608.
  
 Copyright (c) 1988-2019, Gaussian, Inc.  All Rights Reserved.
  
 This is part of the Gaussian(R) 16 program.  It is based on
 the Gaussian(R) 09 system (copyright 2009, Gaussian, Inc.),
 the Gaussian(R) 03 system (copyright 2003, Gaussian, Inc.),
 the Gaussian(R) 98 system (copyright 1998, Gaussian, Inc.),
 the Gaussian(R) 94 system (copyright 1995, Gaussian, Inc.),
 the Gaussian 92(TM) system (copyright 1992, Gaussian, Inc.),
 the Gaussian 90(TM) system (copyright 1990, Gaussian, Inc.),
 the Gaussian 88(TM) system (copyright 1988, Gaussian, Inc.),
 the Gaussian 86(TM) system (copyright 1986, Carnegie Mellon
 University), and the Gaussian 82(TM) system (copyright 1983,
 Carnegie Mellon University). Gaussian is a federally registered
 trademark of Gaussian, Inc.
  
 This software contains proprietary and confidential information,
 including trade secrets, belonging to Gaussian, Inc.
  
 This software is provided under written license and may be
 used, copied, transmitted, or stored only in accord with that
 written license.
  
 The following legend is applicable only to US Government
 contracts under FAR:
  
                    RESTRICTED RIGHTS LEGEND
  
 Use, reproduction and disclosure by the US Government is
 subject to restrictions as set forth in subparagraphs (a)
 and (c) of the Commercial Computer Software - Restricted
 Rights clause in FAR 52.227-19.
  
 Gaussian, Inc.
 340 Quinnipiac St., Bldg. 40, Wallingford CT 06492
  
  
 ---------------------------------------------------------------
 Warning -- This program may not be used in any manner that
 competes with the business of Gaussian, Inc. or will provide
 assistance to any competitor of Gaussian, Inc.  The licensee
 of this program is prohibited from giving any competitor of
 Gaussian, Inc. access to this program.  By using this program,
 the user acknowledges that Gaussian, Inc. is engaged in the
 business of creating and licensing software in the field of
 computational chemistry and represents and warrants to the
 licensee that it is not a competitor of Gaussian, Inc. and that
 it will not use this program in any manner prohibited above.
 ---------------------------------------------------------------
  

 Cite this work as:
 Gaussian 16, Revision C.01,
 M. J. Frisch, G. W. Trucks, H. B. Schlegel, G. E. Scuseria, 
 M. A. Robb, J. R. Cheeseman, G. Scalmani, V. Barone, 
 G. A. Petersson, H. Nakatsuji, X. Li, M. Caricato, A. V. Marenich, 
 J. Bloino, B. G. Janesko, R. Gomperts, B. Mennucci, H. P. Hratchian, 
 J. V. Ortiz, A. F. Izmaylov, J. L. Sonnenberg, D. Williams-Young, 
 F. Ding, F. Lipparini, F. Egidi, J. Goings, B. Peng, A. Petrone, 
 T. Henderson, D. Ranasinghe, V. G. Zakrzewski, J. Gao, N. Rega, 
 G. Zheng, W. Liang, M. Hada, M. Ehara, K. Toyota, R. Fukuda, 
 J. Hasegawa, M. Ishida, T. Nakajima, Y. Honda, O. Kitao, H. Nakai, 
 T. Vreven, K. Throssell, J. A. Montgomery, Jr., J. E. Peralta, 
 F. Ogliaro, M. J. Bearpark, J. J. Heyd, E. N. Brothers, K. N. Kudin, 
 V. N. Staroverov, T. A. Keith, R. Kobayashi, J. Normand, 
 K. Raghavachari, A. P. Rendell, J. C. Burant, S. S. Iyengar, 
 J. Tomasi, M. Cossi, J. M. Millam, M. Klene, C. Adamo, R. Cammi, 
 J. W. Ochterski, R. L. Martin, K. Morokuma, O. Farkas, 
 J. B. Foresman, and D. J. Fox, Gaussian, Inc., Wallingford CT, 2019.
 
 ******************************************
 Gaussian 16:  AS64L-G16RevC.01  3-Jul-2019
                20-Jun-2022 
 ******************************************
 %nproc=8
 Will use up to    8 processors via shared memory.
 %mem=96GB
 %chk=/home/svss/projects/Project-Philicity/GS/hydrocarbon/set-1/GS/mol_20_hc/mol
 _20_hc.chk
 -------------------------
 # opt freq M062X/def2tzvp
 -------------------------
 1/18=20,19=15,26=3,38=1/1,3;
 2/9=110,12=2,17=6,18=5,40=1/2;
 3/5=44,7=101,11=2,25=1,30=1,71=1,74=-55/1,2,3;
 4//1;
 5/5=2,38=5/2;
 6/7=2,8=2,9=2,10=2,28=1/1;
 7//1,2,3,16;
 1/18=20,19=15,26=3/3(2);
 2/9=110/2;
 99//99;
 2/9=110/2;
 3/5=44,7=101,11=2,25=1,30=1,71=1,74=-55/1,2,3;
 4/5=5,16=3,69=1/1;
 5/5=2,38=5/2;
 7//1,2,3,16;
 1/18=20,19=15,26=3/3(-5);
 2/9=110/2;
 6/7=2,8=2,9=2,10=2,19=2,28=1/1;
 99/9=1/99;
 ----------------------------------------------------------------------
 converted from /home/svss/projects/Project-Philicity/GS/hydrocarbon/se
 t-1/GS/mol_20_hc/mol_20_hc_cregen_best.xyz
 ----------------------------------------------------------------------
 Symbolic Z-matrix:
 Charge =  0 Multiplicity = 1
 F                     1.08618  -0.24748  -0.0133 
 N                     0.00002   0.59096   0.0936 
 F                    -1.0862   -0.24747  -0.0133 
 H                    -0.00001   1.11694  -0.79929 
 

 GradGradGradGradGradGradGradGradGradGradGradGradGradGradGradGradGradGrad
 Berny optimization.
 Initialization pass.
                           ----------------------------
                           !    Initial Parameters    !
                           ! (Angstroms and Degrees)  !
 --------------------------                            --------------------------
 ! Name  Definition              Value          Derivative Info.                !
 --------------------------------------------------------------------------------
 ! R1    R(1,2)                  1.3763         estimate D2E/DX2                !
 ! R2    R(2,3)                  1.3763         estimate D2E/DX2                !
 ! R3    R(2,4)                  1.0363         estimate D2E/DX2                !
 ! A1    A(1,2,3)              104.2232         estimate D2E/DX2                !
 ! A2    A(1,2,4)              104.0227         estimate D2E/DX2                !
 ! A3    A(3,2,4)              104.0193         estimate D2E/DX2                !
 ! D1    D(1,2,4,3)            108.8675         estimate D2E/DX2                !
 --------------------------------------------------------------------------------
 Trust Radius=3.00D-01 FncErr=1.00D-07 GrdErr=1.00D-06 EigMax=2.50D+02 EigMin=1.00D-04
 Number of steps in this run=     20 maximum allowed number of steps=    100.
 GradGradGradGradGradGradGradGradGradGradGradGradGradGradGradGradGradGrad

                          Input orientation:                          
 ---------------------------------------------------------------------
 Center     Atomic      Atomic             Coordinates (Angstroms)
 Number     Number       Type             X           Y           Z
 ---------------------------------------------------------------------
      1          9           0        1.086180   -0.247480   -0.013300
      2          7           0        0.000020    0.590960    0.093600
      3          9           0       -1.086200   -0.247470   -0.013300
      4          1           0       -0.000010    1.116940   -0.799290
 ---------------------------------------------------------------------
                    Distance matrix (angstroms):
                    1          2          3          4
     1  F    0.000000
     2  N    1.376282   0.000000
     3  F    2.172380   1.376323   0.000000
     4  H    1.912912   1.036295   1.912905   0.000000
 Stoichiometry    F2HN
 Framework group  C1[X(F2HN)]
 Deg. of freedom     6
 Full point group                 C1      NOp   1
 Largest Abelian subgroup         C1      NOp   1
 Largest concise Abelian subgroup C1      NOp   1
                         Standard orientation:                         
 ---------------------------------------------------------------------
 Center     Atomic      Atomic             Coordinates (Angstroms)
 Number     Number       Type             X           Y           Z
 ---------------------------------------------------------------------
      1          9           0       -1.086182   -0.276832    0.027754
      2          7           0       -0.000023    0.545763   -0.166538
      3          9           0        1.086198   -0.276820    0.027750
      4          1           0        0.000008    1.162533    0.666230
 ---------------------------------------------------------------------
 Rotational constants (GHZ):          54.6473864          11.0823313           9.4811248
 Standard basis: def2TZVP (5D, 7F)
 There are   114 symmetry adapted cartesian basis functions of A   symmetry.
 There are    99 symmetry adapted basis functions of A   symmetry.
    99 basis functions,   161 primitive gaussians,   114 cartesian basis functions
    13 alpha electrons       13 beta electrons
       nuclear repulsion energy        76.7309606391 Hartrees.
 NAtoms=    4 NActive=    4 NUniq=    4 SFac= 1.00D+00 NAtFMM=   60 NAOKFM=F Big=F
 Integral buffers will be    131072 words long.
 Raffenetti 2 integral format.
 Two-electron integral symmetry is turned on.
 One-electron integrals computed using PRISM.
   1 Symmetry operations used in ECPInt.
 ECPInt:  NShTT=     703 NPrTT=    2280 LenC2=     699 LenP2D=    1973.
 LDataN:  DoStor=T MaxTD1= 6 Len=  172
 NBasis=    99 RedAO= T EigKep=  3.44D-03  NBF=    99
 NBsUse=    99 1.00D-06 EigRej= -1.00D+00 NBFU=    99
 ExpMin= 1.03D-01 ExpMax= 3.55D+04 ExpMxC= 1.21D+03 IAcc=3 IRadAn=         5 AccDes= 0.00D+00
 Harris functional with IExCor= 1009 and IRadAn=       5 diagonalized for initial guess.
 HarFok:  IExCor= 1009 AccDes= 0.00D+00 IRadAn=         5 IDoV= 1 UseB2=F ITyADJ=14
 ICtDFT=  3500011 ScaDFX=  1.000000  1.000000  1.000000  1.000000
 FoFCou: FMM=F IPFlag=           0 FMFlag=      100000 FMFlg1=           0
         NFxFlg=           0 DoJE=T BraDBF=F KetDBF=T FulRan=T
         wScrn=  0.000000 ICntrl=       500 IOpCl=  0 I1Cent=   200000004 NGrid=           0
         NMat0=    1 NMatS0=      1 NMatT0=    0 NMatD0=    1 NMtDS0=    0 NMtDT0=    0
 Petite list used in FoFCou.
 Keep R1 ints in memory in canonical form, NReq=19772735.
 Requested convergence on RMS density matrix=1.00D-08 within 128 cycles.
 Requested convergence on MAX density matrix=1.00D-06.
 Requested convergence on             energy=1.00D-06.
 No special actions if energy rises.
 Integral accuracy reduced to 1.0D-05 until final iterations.
 Initial convergence to 1.0D-05 achieved.  Increase integral accuracy.
 SCF Done:  E(RM062X) =  -254.911382919     A.U. after   13 cycles
            NFock= 13  Conv=0.72D-08     -V/T= 2.0037

 **********************************************************************

            Population analysis using the SCF Density.

 **********************************************************************

 Orbital symmetries:
       Occupied  (A) (A) (A) (A) (A) (A) (A) (A) (A) (A) (A) (A)
                 (A)
       Virtual   (A) (A) (A) (A) (A) (A) (A) (A) (A) (A) (A) (A)
                 (A) (A) (A) (A) (A) (A) (A) (A) (A) (A) (A) (A)
                 (A) (A) (A) (A) (A) (A) (A) (A) (A) (A) (A) (A)
                 (A) (A) (A) (A) (A) (A) (A) (A) (A) (A) (A) (A)
                 (A) (A) (A) (A) (A) (A) (A) (A) (A) (A) (A) (A)
                 (A) (A) (A) (A) (A) (A) (A) (A) (A) (A) (A) (A)
                 (A) (A) (A) (A) (A) (A) (A) (A) (A) (A) (A) (A)
                 (A) (A)
 The electronic state is 1-A.
 Alpha  occ. eigenvalues --  -25.29177 -25.29175 -14.93860  -1.44878  -1.36256
 Alpha  occ. eigenvalues --   -0.94765  -0.69238  -0.66795  -0.62836  -0.55254
 Alpha  occ. eigenvalues --   -0.52778  -0.52205  -0.38366
 Alpha virt. eigenvalues --    0.05061   0.09703   0.10537   0.30992   0.35498
 Alpha virt. eigenvalues --    0.35987   0.40914   0.48444   0.55648   0.57886
 Alpha virt. eigenvalues --    0.59629   0.61723   0.68104   0.73524   0.94908
 Alpha virt. eigenvalues --    0.95977   1.02625   1.11857   1.16322   1.31701
 Alpha virt. eigenvalues --    1.47277   1.77949   1.80049   1.87842   1.93066
 Alpha virt. eigenvalues --    1.98885   2.00811   2.06919   2.08189   2.12084
 Alpha virt. eigenvalues --    2.20258   2.36662   2.45772   2.51900   2.57473
 Alpha virt. eigenvalues --    2.60736   2.69905   2.79078   3.03098   3.22684
 Alpha virt. eigenvalues --    3.24593   3.29096   3.48660   3.65530   3.70992
 Alpha virt. eigenvalues --    3.83414   3.93911   3.99964   4.19359   4.20888
 Alpha virt. eigenvalues --    4.31345   4.58308   4.68157   4.71045   4.80681
 Alpha virt. eigenvalues --    4.81408   5.28276   5.65621   5.84653   6.87781
 Alpha virt. eigenvalues --    6.88691   6.88813   6.89032   6.89163   6.90203
 Alpha virt. eigenvalues --    6.94136   6.98788   7.17188   7.24078   7.25046
 Alpha virt. eigenvalues --    7.27417   7.60126   7.65627   8.26796   8.28504
 Alpha virt. eigenvalues --    8.31164   8.31843   8.60464   8.68888   8.69556
 Alpha virt. eigenvalues --    8.79155   9.23488   9.26446  31.47351  57.05510
 Alpha virt. eigenvalues --   57.29106
          Condensed to atoms (all electrons):
               1          2          3          4
     1  F    9.117090   0.108048  -0.041525  -0.032675
     2  N    0.108048   6.415625   0.108052   0.316667
     3  F   -0.041525   0.108052   9.117113  -0.032674
     4  H   -0.032675   0.316667  -0.032674   0.498385
 Mulliken charges:
               1
     1  F   -0.150938
     2  N    0.051607
     3  F   -0.150965
     4  H    0.250296
 Sum of Mulliken charges =  -0.00000
 Mulliken charges with hydrogens summed into heavy atoms:
               1
     1  F   -0.150938
     2  N    0.301903
     3  F   -0.150965
 Electronic spatial extent (au):  <R**2>=            130.2589
 Charge=             -0.0000 electrons
 Dipole moment (field-independent basis, Debye):
    X=             -0.0002    Y=              1.5157    Z=              1.3517  Tot=              2.0308
 Quadrupole moment (field-independent basis, Debye-Ang):
   XX=            -17.1343   YY=            -14.2318   ZZ=            -15.5703
   XY=              0.0000   XZ=              0.0000   YZ=              1.8572
 Traceless Quadrupole moment (field-independent basis, Debye-Ang):
   XX=             -1.4889   YY=              1.4136   ZZ=              0.0752
   XY=              0.0000   XZ=              0.0000   YZ=              1.8572
 Octapole moment (field-independent basis, Debye-Ang**2):
  XXX=             -0.0003  YYY=             -0.7732  ZZZ=              2.0764  XYY=             -0.0000
  XXY=             -0.5815  XXZ=              0.2790  XZZ=             -0.0000  YZZ=             -0.6382
  YYZ=              2.4609  XYZ=             -0.0000
 Hexadecapole moment (field-independent basis, Debye-Ang**3):
 XXXX=            -80.0561 YYYY=            -26.7603 ZZZZ=            -13.9502 XXXY=              0.0000
 XXXZ=             -0.0000 YYYX=              0.0002 YYYZ=              3.2810 ZZZX=             -0.0000
 ZZZY=              2.0829 XXYY=            -17.2710 XXZZ=            -15.7472 YYZZ=             -6.7597
 XXYZ=              0.1374 YYXZ=             -0.0000 ZZXY=              0.0001
 N-N= 7.673096063910D+01 E-N=-7.596290747707D+02  KE= 2.539811118931D+02
   1 Symmetry operations used in ECPInt.
 ECPInt:  NShTT=     703 NPrTT=    2280 LenC2=     699 LenP2D=    1973.
 LDataN:  DoStor=T MaxTD1= 7 Len=  274
 Calling FoFJK, ICntrl=      2127 FMM=F ISym2X=0 I1Cent= 0 IOpClX= 0 NMat=1 NMatS=1 NMatT=0.
 ***** Axes restored to original set *****
 -------------------------------------------------------------------
 Center     Atomic                   Forces (Hartrees/Bohr)
 Number     Number              X              Y              Z
 -------------------------------------------------------------------
      1        9          -0.005784140    0.002824493   -0.005755620
      2        7          -0.000018718    0.007382578    0.008767978
      3        9           0.005799637    0.002835057   -0.005751193
      4        1           0.000003222   -0.013042129    0.002738835
 -------------------------------------------------------------------
 Cartesian Forces:  Max     0.013042129 RMS     0.006179869

 GradGradGradGradGradGradGradGradGradGradGradGradGradGradGradGradGradGrad
 Berny optimization.
 FormGI is forming the generalized inverse of G from B-inverse, IUseBI=4.
 Internal  Forces:  Max     0.013340082 RMS     0.009203734
 Search for a local minimum.
 Step number   1 out of a maximum of   20
 All quantities printed in internal units (Hartrees-Bohrs-Radians)
 Mixed Optimization -- RFO/linear search
 Second derivative matrix not updated -- first step.
 The second derivative matrix:
                          R1        R2        R3        A1        A2
           R1           0.49788
           R2           0.00000   0.49781
           R3           0.00000   0.00000   0.41837
           A1           0.00000   0.00000   0.00000   0.25000
           A2           0.00000   0.00000   0.00000   0.00000   0.16000
           A3           0.00000   0.00000   0.00000   0.00000   0.00000
           D1           0.00000   0.00000   0.00000   0.00000   0.00000
                          A3        D1
           A3           0.16000
           D1           0.00000   0.00548
 ITU=  0
     Eigenvalues ---    0.09404   0.16000   0.18118   0.41837   0.49781
     Eigenvalues ---    0.49788
 RFO step:  Lambda=-3.99453545D-03 EMin= 9.40407131D-02
 Linear search not attempted -- first point.
 Iteration  1 RMS(Cart)=  0.07164935 RMS(Int)=  0.00669132
 Iteration  2 RMS(Cart)=  0.00455681 RMS(Int)=  0.00468830
 Iteration  3 RMS(Cart)=  0.00001765 RMS(Int)=  0.00468828
 Iteration  4 RMS(Cart)=  0.00000014 RMS(Int)=  0.00468828
 Variable       Old X    -DE/DX   Delta X   Delta X   Delta X     New X
                                 (Linear)    (Quad)   (Total)
    R1        2.60080  -0.00584   0.00000  -0.01164  -0.01164   2.58916
    R2        2.60087  -0.00586   0.00000  -0.01168  -0.01168   2.58919
    R3        1.95831  -0.00897   0.00000  -0.02124  -0.02124   1.93708
    A1        1.81904  -0.00008   0.00000  -0.03616  -0.04490   1.77414
    A2        1.81554  -0.01334   0.00000  -0.09916  -0.10072   1.71482
    A3        1.81548  -0.01333   0.00000  -0.09912  -0.10067   1.71481
    D1        1.90010  -0.00940   0.00000  -0.10859  -0.10008   1.80002
         Item               Value     Threshold  Converged?
 Maximum Force            0.013340     0.000450     NO 
 RMS     Force            0.009204     0.000300     NO 
 Maximum Displacement     0.119824     0.001800     NO 
 RMS     Displacement     0.072622     0.001200     NO 
 Predicted change in Energy=-1.892781D-03
 GradGradGradGradGradGradGradGradGradGradGradGradGradGradGradGradGradGrad

                          Input orientation:                          
 ---------------------------------------------------------------------
 Center     Atomic      Atomic             Coordinates (Angstroms)
 Number     Number       Type             X           Y           Z
 ---------------------------------------------------------------------
      1          9           0        1.062150   -0.229010   -0.041478
      2          7           0        0.000008    0.617430    0.139160
      3          9           0       -1.062168   -0.229002   -0.041469
      4          1           0       -0.000001    1.053532   -0.788503
 ---------------------------------------------------------------------
                    Distance matrix (angstroms):
                    1          2          3          4
     1  F    0.000000
     2  N    1.370122   0.000000
     3  F    2.124318   1.370142   0.000000
     4  H    1.825136   1.025057   1.825144   0.000000
 Stoichiometry    F2HN
 Framework group  C1[X(F2HN)]
 Deg. of freedom     6
 Full point group                 C1      NOp   1
 Largest Abelian subgroup         C1      NOp   1
 Largest concise Abelian subgroup C1      NOp   1
                         Standard orientation:                         
 ---------------------------------------------------------------------
 Center     Atomic      Atomic             Coordinates (Angstroms)
 Number     Number       Type             X           Y           Z
 ---------------------------------------------------------------------
      1          9           0       -1.062154   -0.277050    0.022130
      2          7           0       -0.000011    0.567909   -0.165307
      3          9           0        1.062164   -0.277042    0.022129
      4          1           0       -0.000006    1.011460    0.758817
 ---------------------------------------------------------------------
 Rotational constants (GHZ):          53.8197139          11.5500746           9.8381459
 Standard basis: def2TZVP (5D, 7F)
 There are   114 symmetry adapted cartesian basis functions of A   symmetry.
 There are    99 symmetry adapted basis functions of A   symmetry.
    99 basis functions,   161 primitive gaussians,   114 cartesian basis functions
    13 alpha electrons       13 beta electrons
       nuclear repulsion energy        77.6741949047 Hartrees.
 NAtoms=    4 NActive=    4 NUniq=    4 SFac= 1.00D+00 NAtFMM=   60 NAOKFM=F Big=F
 Integral buffers will be    131072 words long.
 Raffenetti 2 integral format.
 Two-electron integral symmetry is turned on.
 One-electron integrals computed using PRISM.
   1 Symmetry operations used in ECPInt.
 ECPInt:  NShTT=     703 NPrTT=    2280 LenC2=     699 LenP2D=    1977.
 LDataN:  DoStor=T MaxTD1= 6 Len=  172
 NBasis=    99 RedAO= T EigKep=  2.69D-03  NBF=    99
 NBsUse=    99 1.00D-06 EigRej= -1.00D+00 NBFU=    99
 Initial guess from the checkpoint file:  "/home/svss/projects/Project-Philicity/GS/hydrocarbon/set-1/GS/mol_20_hc/mol_20_hc.chk"
 B after Tr=     0.000000   -0.000000   -0.000000
         Rot=    0.999699   -0.024533    0.000001    0.000002 Ang=  -2.81 deg.
 ExpMin= 1.03D-01 ExpMax= 3.55D+04 ExpMxC= 1.21D+03 IAcc=3 IRadAn=         5 AccDes= 0.00D+00
 Harris functional with IExCor= 1009 and IRadAn=       5 diagonalized for initial guess.
 HarFok:  IExCor= 1009 AccDes= 0.00D+00 IRadAn=         5 IDoV= 1 UseB2=F ITyADJ=14
 ICtDFT=  3500011 ScaDFX=  1.000000  1.000000  1.000000  1.000000
 FoFCou: FMM=F IPFlag=           0 FMFlag=      100000 FMFlg1=           0
         NFxFlg=           0 DoJE=T BraDBF=F KetDBF=T FulRan=T
         wScrn=  0.000000 ICntrl=       500 IOpCl=  0 I1Cent=   200000004 NGrid=           0
         NMat0=    1 NMatS0=      1 NMatT0=    0 NMatD0=    1 NMtDS0=    0 NMtDT0=    0
 Petite list used in FoFCou.
 Keep R1 ints in memory in canonical form, NReq=19772735.
 Requested convergence on RMS density matrix=1.00D-08 within 128 cycles.
 Requested convergence on MAX density matrix=1.00D-06.
 Requested convergence on             energy=1.00D-06.
 No special actions if energy rises.
 Integral accuracy reduced to 1.0D-05 until final iterations.
 Initial convergence to 1.0D-05 achieved.  Increase integral accuracy.
 SCF Done:  E(RM062X) =  -254.911466466     A.U. after   12 cycles
            NFock= 12  Conv=0.82D-08     -V/T= 2.0033
   1 Symmetry operations used in ECPInt.
 ECPInt:  NShTT=     703 NPrTT=    2280 LenC2=     699 LenP2D=    1977.
 LDataN:  DoStor=T MaxTD1= 7 Len=  274
 Calling FoFJK, ICntrl=      2127 FMM=F ISym2X=0 I1Cent= 0 IOpClX= 0 NMat=1 NMatS=1 NMatT=0.
 ***** Axes restored to original set *****
 -------------------------------------------------------------------
 Center     Atomic                   Forces (Hartrees/Bohr)
 Number     Number              X              Y              Z
 -------------------------------------------------------------------
      1        9           0.010810632   -0.004046229    0.005003239
      2        7          -0.000008519   -0.001215115   -0.013127699
      3        9          -0.010801987   -0.004039153    0.005004509
      4        1          -0.000000126    0.009300498    0.003119951
 -------------------------------------------------------------------
 Cartesian Forces:  Max     0.013127699 RMS     0.006990251

 GradGradGradGradGradGradGradGradGradGradGradGradGradGradGradGradGradGrad
 Berny optimization.
 Using GEDIIS/GDIIS optimizer.
 FormGI is forming the generalized inverse of G from B-inverse, IUseBI=4.
 Internal  Forces:  Max     0.013375328 RMS     0.009872001
 Search for a local minimum.
 Step number   2 out of a maximum of   20
 All quantities printed in internal units (Hartrees-Bohrs-Radians)
 Mixed Optimization -- RFO/linear search
 Update second derivatives using D2CorX and points    1    2
 DE= -8.35D-05 DEPred=-1.89D-03 R= 4.41D-02
 Trust test= 4.41D-02 RLast= 1.82D-01 DXMaxT set to 1.50D-01
 The second derivative matrix:
                          R1        R2        R3        A1        A2
           R1           0.52163
           R2           0.02374   0.52153
           R3           0.00761   0.00758   0.41190
           A1          -0.00640  -0.00645  -0.01827   0.22222
           A2           0.03042   0.03037  -0.00127  -0.02826   0.18534
           A3           0.03041   0.03037  -0.00126  -0.02824   0.02534
           D1           0.03705   0.03707   0.02265   0.00961   0.06078
                          A3        D1
           A3           0.18534
           D1           0.06076   0.05027
 ITU= -1  0
 Use linear search instead of GDIIS.
     Eigenvalues ---    0.13934   0.16000   0.22625   0.41106   0.49784
     Eigenvalues ---    0.56319
 RFO step:  Lambda=-7.22379796D-05 EMin= 1.39335256D-01
 Quartic linear search produced a step of -0.47917.
 Iteration  1 RMS(Cart)=  0.03426133 RMS(Int)=  0.00158474
 Iteration  2 RMS(Cart)=  0.00092815 RMS(Int)=  0.00122189
 Iteration  3 RMS(Cart)=  0.00000109 RMS(Int)=  0.00122189
 Iteration  4 RMS(Cart)=  0.00000000 RMS(Int)=  0.00122189
 Variable       Old X    -DE/DX   Delta X   Delta X   Delta X     New X
                                 (Linear)    (Quad)   (Total)
    R1        2.58916   0.01022   0.00558   0.00468   0.01026   2.59941
    R2        2.58919   0.01020   0.00560   0.00465   0.01025   2.59944
    R3        1.93708   0.00115   0.01018  -0.00958   0.00059   1.93767
    A1        1.77414   0.00464   0.02151   0.00618   0.02997   1.80411
    A2        1.71482   0.01338   0.04826  -0.00329   0.04552   1.76034
    A3        1.71481   0.01337   0.04824  -0.00326   0.04553   1.76033
    D1        1.80002   0.00965   0.04795   0.00515   0.05094   1.85096
         Item               Value     Threshold  Converged?
 Maximum Force            0.013375     0.000450     NO 
 RMS     Force            0.009872     0.000300     NO 
 Maximum Displacement     0.049241     0.001800     NO 
 RMS     Displacement     0.034192     0.001200     NO 
 Predicted change in Energy=-1.087927D-03
 GradGradGradGradGradGradGradGradGradGradGradGradGradGradGradGradGradGrad

                          Input orientation:                          
 ---------------------------------------------------------------------
 Center     Atomic      Atomic             Coordinates (Angstroms)
 Number     Number       Type             X           Y           Z
 ---------------------------------------------------------------------
      1          9           0        1.079258   -0.235592   -0.029287
      2          7           0        0.000006    0.604535    0.117481
      3          9           0       -1.079273   -0.235582   -0.029278
      4          1           0       -0.000001    1.079589   -0.791206
 ---------------------------------------------------------------------
                    Distance matrix (angstroms):
                    1          2          3          4
     1  F    0.000000
     2  N    1.375551   0.000000
     3  F    2.158531   1.375565   0.000000
     4  H    1.864141   1.025372   1.864146   0.000000
 Stoichiometry    F2HN
 Framework group  C1[X(F2HN)]
 Deg. of freedom     6
 Full point group                 C1      NOp   1
 Largest Abelian subgroup         C1      NOp   1
 Largest concise Abelian subgroup C1      NOp   1
                         Standard orientation:                         
 ---------------------------------------------------------------------
 Center     Atomic      Atomic             Coordinates (Angstroms)
 Number     Number       Type             X           Y           Z
 ---------------------------------------------------------------------
      1          9           0       -1.079262   -0.275829    0.025014
      2          7           0       -0.000008    0.555232   -0.166525
      3          9           0        1.079269   -0.275824    0.025014
      4          1           0       -0.000004    1.078262    0.715420
 ---------------------------------------------------------------------
 Rotational constants (GHZ):          54.6372977          11.2073333           9.5943726
 Standard basis: def2TZVP (5D, 7F)
 There are   114 symmetry adapted cartesian basis functions of A   symmetry.
 There are    99 symmetry adapted basis functions of A   symmetry.
    99 basis functions,   161 primitive gaussians,   114 cartesian basis functions
    13 alpha electrons       13 beta electrons
       nuclear repulsion energy        77.0521333440 Hartrees.
 NAtoms=    4 NActive=    4 NUniq=    4 SFac= 1.00D+00 NAtFMM=   60 NAOKFM=F Big=F
 Integral buffers will be    131072 words long.
 Raffenetti 2 integral format.
 Two-electron integral symmetry is turned on.
 One-electron integrals computed using PRISM.
   1 Symmetry operations used in ECPInt.
 ECPInt:  NShTT=     703 NPrTT=    2280 LenC2=     699 LenP2D=    1975.
 LDataN:  DoStor=T MaxTD1= 6 Len=  172
 NBasis=    99 RedAO= T EigKep=  2.99D-03  NBF=    99
 NBsUse=    99 1.00D-06 EigRej= -1.00D+00 NBFU=    99
 Initial guess from the checkpoint file:  "/home/svss/projects/Project-Philicity/GS/hydrocarbon/set-1/GS/mol_20_hc/mol_20_hc.chk"
 B after Tr=     0.000000    0.000000    0.000000
         Rot=    0.999929    0.011897    0.000000    0.000001 Ang=   1.36 deg.
 ExpMin= 1.03D-01 ExpMax= 3.55D+04 ExpMxC= 1.21D+03 IAcc=3 IRadAn=         5 AccDes= 0.00D+00
 Harris functional with IExCor= 1009 and IRadAn=       5 diagonalized for initial guess.
 HarFok:  IExCor= 1009 AccDes= 0.00D+00 IRadAn=         5 IDoV= 1 UseB2=F ITyADJ=14
 ICtDFT=  3500011 ScaDFX=  1.000000  1.000000  1.000000  1.000000
 FoFCou: FMM=F IPFlag=           0 FMFlag=      100000 FMFlg1=           0
         NFxFlg=           0 DoJE=T BraDBF=F KetDBF=T FulRan=T
         wScrn=  0.000000 ICntrl=       500 IOpCl=  0 I1Cent=   200000004 NGrid=           0
         NMat0=    1 NMatS0=      1 NMatT0=    0 NMatD0=    1 NMtDS0=    0 NMtDT0=    0
 Petite list used in FoFCou.
 Keep R1 ints in memory in canonical form, NReq=19772735.
 Requested convergence on RMS density matrix=1.00D-08 within 128 cycles.
 Requested convergence on MAX density matrix=1.00D-06.
 Requested convergence on             energy=1.00D-06.
 No special actions if energy rises.
 Integral accuracy reduced to 1.0D-05 until final iterations.
 Initial convergence to 1.0D-05 achieved.  Increase integral accuracy.
 SCF Done:  E(RM062X) =  -254.912472520     A.U. after   12 cycles
            NFock= 12  Conv=0.56D-08     -V/T= 2.0035
   1 Symmetry operations used in ECPInt.
 ECPInt:  NShTT=     703 NPrTT=    2280 LenC2=     699 LenP2D=    1975.
 LDataN:  DoStor=T MaxTD1= 7 Len=  274
 Calling FoFJK, ICntrl=      2127 FMM=F ISym2X=0 I1Cent= 0 IOpClX= 0 NMat=1 NMatS=1 NMatT=0.
 ***** Axes restored to original set *****
 -------------------------------------------------------------------
 Center     Atomic                   Forces (Hartrees/Bohr)
 Number     Number              X              Y              Z
 -------------------------------------------------------------------
      1        9          -0.000258689   -0.000233489   -0.000008103
      2        7          -0.000005792    0.000364860   -0.000009866
      3        9           0.000264470   -0.000228988   -0.000007305
      4        1           0.000000012    0.000097617    0.000025274
 -------------------------------------------------------------------
 Cartesian Forces:  Max     0.000364860 RMS     0.000179666

 GradGradGradGradGradGradGradGradGradGradGradGradGradGradGradGradGradGrad
 Berny optimization.
 Using GEDIIS/GDIIS optimizer.
 FormGI is forming the generalized inverse of G from B-inverse, IUseBI=4.
 Internal  Forces:  Max     0.000457685 RMS     0.000253487
 Search for a local minimum.
 Step number   3 out of a maximum of   20
 All quantities printed in internal units (Hartrees-Bohrs-Radians)
 Mixed Optimization -- En-DIIS/RFO-DIIS
 Update second derivatives using D2CorX and points    1    2    3
 DE= -1.01D-03 DEPred=-1.09D-03 R= 9.25D-01
 TightC=F SS=  1.41D+00  RLast= 8.86D-02 DXNew= 2.5227D-01 2.6579D-01
 Trust test= 9.25D-01 RLast= 8.86D-02 DXMaxT set to 2.52D-01
 The second derivative matrix:
                          R1        R2        R3        A1        A2
           R1           0.51910
           R2           0.02127   0.51912
           R3           0.00972   0.00967   0.41274
           A1          -0.00391  -0.00393  -0.01961   0.22650
           A2           0.03097   0.03097   0.00095  -0.02520   0.18921
           A3           0.03096   0.03096   0.00095  -0.02518   0.02921
           D1           0.03981   0.03985   0.02299   0.01358   0.06549
                          A3        D1
           A3           0.18920
           D1           0.06547   0.05537
 ITU=  1 -1  0
 Use linear search instead of GDIIS.
     Eigenvalues ---    0.14494   0.16000   0.24011   0.41130   0.49784
     Eigenvalues ---    0.56248
 RFO step:  Lambda=-2.78667809D-06 EMin= 1.44942477D-01
 Quartic linear search produced a step of -0.00725.
 Iteration  1 RMS(Cart)=  0.00193786 RMS(Int)=  0.00000704
 Iteration  2 RMS(Cart)=  0.00000169 RMS(Int)=  0.00000676
 Iteration  3 RMS(Cart)=  0.00000000 RMS(Int)=  0.00000676
 Variable       Old X    -DE/DX   Delta X   Delta X   Delta X     New X
                                 (Linear)    (Quad)   (Total)
    R1        2.59941  -0.00006  -0.00007   0.00001  -0.00007   2.59935
    R2        2.59944  -0.00007  -0.00007  -0.00001  -0.00008   2.59936
    R3        1.93767   0.00003  -0.00000   0.00009   0.00008   1.93775
    A1        1.80411  -0.00046  -0.00022  -0.00289  -0.00310   1.80101
    A2        1.76034   0.00022  -0.00033   0.00139   0.00107   1.76141
    A3        1.76033   0.00022  -0.00033   0.00140   0.00107   1.76140
    D1        1.85096  -0.00037  -0.00037  -0.00232  -0.00270   1.84826
         Item               Value     Threshold  Converged?
 Maximum Force            0.000458     0.000450     NO 
 RMS     Force            0.000253     0.000300     YES
 Maximum Displacement     0.002558     0.001800     NO 
 RMS     Displacement     0.001938     0.001200     NO 
 Predicted change in Energy=-1.444515D-06
 GradGradGradGradGradGradGradGradGradGradGradGradGradGradGradGradGradGrad

                          Input orientation:                          
 ---------------------------------------------------------------------
 Center     Atomic      Atomic             Coordinates (Angstroms)
 Number     Number       Type             X           Y           Z
 ---------------------------------------------------------------------
      1          9           0        1.077908   -0.236511   -0.028997
      2          7           0        0.000004    0.605391    0.117183
      3          9           0       -1.077919   -0.236498   -0.028988
      4          1           0       -0.000002    1.080569   -0.791487
 ---------------------------------------------------------------------
                    Distance matrix (angstroms):
                    1          2          3          4
     1  F    0.000000
     2  N    1.375516   0.000000
     3  F    2.155827   1.375522   0.000000
     4  H    1.864934   1.025415   1.864933   0.000000
 Stoichiometry    F2HN
 Framework group  C1[X(F2HN)]
 Deg. of freedom     6
 Full point group                 C1      NOp   1
 Largest Abelian subgroup         C1      NOp   1
 Largest concise Abelian subgroup C1      NOp   1
                         Standard orientation:                         
 ---------------------------------------------------------------------
 Center     Atomic      Atomic             Coordinates (Angstroms)
 Number     Number       Type             X           Y           Z
 ---------------------------------------------------------------------
      1          9           0       -1.077912   -0.276376    0.024982
      2          7           0       -0.000004    0.556403   -0.166420
      3          9           0        1.077915   -0.276374    0.024981
      4          1           0        0.000001    1.079932    0.715279
 ---------------------------------------------------------------------
 Rotational constants (GHZ):          54.4462317          11.2350902           9.6085556
 Standard basis: def2TZVP (5D, 7F)
 There are   114 symmetry adapted cartesian basis functions of A   symmetry.
 There are    99 symmetry adapted basis functions of A   symmetry.
    99 basis functions,   161 primitive gaussians,   114 cartesian basis functions
    13 alpha electrons       13 beta electrons
       nuclear repulsion energy        77.0760895956 Hartrees.
 NAtoms=    4 NActive=    4 NUniq=    4 SFac= 1.00D+00 NAtFMM=   60 NAOKFM=F Big=F
 Integral buffers will be    131072 words long.
 Raffenetti 2 integral format.
 Two-electron integral symmetry is turned on.
 One-electron integrals computed using PRISM.
   1 Symmetry operations used in ECPInt.
 ECPInt:  NShTT=     703 NPrTT=    2280 LenC2=     699 LenP2D=    1975.
 LDataN:  DoStor=T MaxTD1= 6 Len=  172
 NBasis=    99 RedAO= T EigKep=  2.99D-03  NBF=    99
 NBsUse=    99 1.00D-06 EigRej= -1.00D+00 NBFU=    99
 Initial guess from the checkpoint file:  "/home/svss/projects/Project-Philicity/GS/hydrocarbon/set-1/GS/mol_20_hc/mol_20_hc.chk"
 B after Tr=    -0.000000   -0.000000   -0.000000
         Rot=    1.000000   -0.000077    0.000000    0.000001 Ang=  -0.01 deg.
 Keep R1 ints in memory in canonical form, NReq=19772735.
 Requested convergence on RMS density matrix=1.00D-08 within 128 cycles.
 Requested convergence on MAX density matrix=1.00D-06.
 Requested convergence on             energy=1.00D-06.
 No special actions if energy rises.
 SCF Done:  E(RM062X) =  -254.912473218     A.U. after    7 cycles
            NFock=  7  Conv=0.71D-08     -V/T= 2.0035
   1 Symmetry operations used in ECPInt.
 ECPInt:  NShTT=     703 NPrTT=    2280 LenC2=     699 LenP2D=    1975.
 LDataN:  DoStor=T MaxTD1= 7 Len=  274
 Calling FoFJK, ICntrl=      2127 FMM=F ISym2X=0 I1Cent= 0 IOpClX= 0 NMat=1 NMatS=1 NMatT=0.
 ***** Axes restored to original set *****
 -------------------------------------------------------------------
 Center     Atomic                   Forces (Hartrees/Bohr)
 Number     Number              X              Y              Z
 -------------------------------------------------------------------
      1        9           0.000125777    0.000123821   -0.000041039
      2        7          -0.000002872   -0.000204626    0.000118776
      3        9          -0.000123402    0.000125457   -0.000040295
      4        1           0.000000497   -0.000044652   -0.000037442
 -------------------------------------------------------------------
 Cartesian Forces:  Max     0.000204626 RMS     0.000101985

 GradGradGradGradGradGradGradGradGradGradGradGradGradGradGradGradGradGrad
 Berny optimization.
 Using GEDIIS/GDIIS optimizer.
 FormGI is forming the generalized inverse of G from B-inverse, IUseBI=4.
 Internal  Forces:  Max     0.000243020 RMS     0.000145242
 Search for a local minimum.
 Step number   4 out of a maximum of   20
 All quantities printed in internal units (Hartrees-Bohrs-Radians)
 Mixed Optimization -- En-DIIS/RFO-DIIS
 Swapping is turned off.
 Update second derivatives using D2CorX and points    1    2    3    4
 DE= -6.99D-07 DEPred=-1.44D-06 R= 4.84D-01
 Trust test= 4.84D-01 RLast= 4.38D-03 DXMaxT set to 2.52D-01
 The second derivative matrix:
                          R1        R2        R3        A1        A2
           R1           0.51695
           R2           0.01912   0.51695
           R3           0.01239   0.01238   0.41334
           A1          -0.00508  -0.00644  -0.01262   0.11981
           A2           0.02756   0.02754   0.00006  -0.04699   0.21948
           A3           0.02756   0.02754   0.00007  -0.04678   0.05937
           D1           0.04677   0.04725   0.02249   0.08483   0.01895
                          A3        D1
           A3           0.21926
           D1           0.01907   0.11489
 ITU=  0  1 -1  0
     Eigenvalues ---    0.16000   0.18423   0.29284   0.41099   0.49784
     Eigenvalues ---    0.55889
 En-DIIS/RFO-DIIS/Sim-DIIS IScMMF=       -3 using points:     4    3
 RFO step:  Lambda=-5.68264835D-07.
 DidBck=T Rises=F RFO-DIIS coefs:    0.65864    0.34136
 Iteration  1 RMS(Cart)=  0.00069815 RMS(Int)=  0.00000025
 Iteration  2 RMS(Cart)=  0.00000022 RMS(Int)=  0.00000002
 Variable       Old X    -DE/DX   Delta X   Delta X   Delta X     New X
                                 (Linear)    (Quad)   (Total)
    R1        2.59935   0.00002   0.00002   0.00001   0.00003   2.59938
    R2        2.59936   0.00002   0.00003   0.00000   0.00003   2.59939
    R3        1.93775   0.00002  -0.00003   0.00007   0.00004   1.93779
    A1        1.80101   0.00024   0.00106  -0.00002   0.00104   1.80205
    A2        1.76141  -0.00017  -0.00036  -0.00014  -0.00051   1.76090
    A3        1.76140  -0.00017  -0.00036  -0.00014  -0.00050   1.76090
    D1        1.84826   0.00017   0.00092  -0.00009   0.00083   1.84909
         Item               Value     Threshold  Converged?
 Maximum Force            0.000243     0.000450     YES
 RMS     Force            0.000145     0.000300     YES
 Maximum Displacement     0.000863     0.001800     YES
 RMS     Displacement     0.000698     0.001200     YES
 Predicted change in Energy=-2.841323D-07
 Optimization completed.
    -- Stationary point found.
                           ----------------------------
                           !   Optimized Parameters   !
                           ! (Angstroms and Degrees)  !
 --------------------------                            --------------------------
 ! Name  Definition              Value          Derivative Info.                !
 --------------------------------------------------------------------------------
 ! R1    R(1,2)                  1.3755         -DE/DX =    0.0                 !
 ! R2    R(2,3)                  1.3755         -DE/DX =    0.0                 !
 ! R3    R(2,4)                  1.0254         -DE/DX =    0.0                 !
 ! A1    A(1,2,3)              103.1904         -DE/DX =    0.0002              !
 ! A2    A(1,2,4)              100.9214         -DE/DX =   -0.0002              !
 ! A3    A(3,2,4)              100.9208         -DE/DX =   -0.0002              !
 ! D1    D(1,2,4,3)            105.8973         -DE/DX =    0.0002              !
 --------------------------------------------------------------------------------
 GradGradGradGradGradGradGradGradGradGradGradGradGradGradGradGradGradGrad

                          Input orientation:                          
 ---------------------------------------------------------------------
 Center     Atomic      Atomic             Coordinates (Angstroms)
 Number     Number       Type             X           Y           Z
 ---------------------------------------------------------------------
      1          9           0        1.077908   -0.236511   -0.028997
      2          7           0        0.000004    0.605391    0.117183
      3          9           0       -1.077919   -0.236498   -0.028988
      4          1           0       -0.000002    1.080569   -0.791487
 ---------------------------------------------------------------------
                    Distance matrix (angstroms):
                    1          2          3          4
     1  F    0.000000
     2  N    1.375516   0.000000
     3  F    2.155827   1.375522   0.000000
     4  H    1.864934   1.025415   1.864933   0.000000
 Stoichiometry    F2HN
 Framework group  C1[X(F2HN)]
 Deg. of freedom     6
 Full point group                 C1      NOp   1
 Largest Abelian subgroup         C1      NOp   1
 Largest concise Abelian subgroup C1      NOp   1
                         Standard orientation:                         
 ---------------------------------------------------------------------
 Center     Atomic      Atomic             Coordinates (Angstroms)
 Number     Number       Type             X           Y           Z
 ---------------------------------------------------------------------
      1          9           0       -1.077912   -0.276376    0.024982
      2          7           0       -0.000004    0.556403   -0.166420
      3          9           0        1.077915   -0.276374    0.024981
      4          1           0        0.000001    1.079932    0.715279
 ---------------------------------------------------------------------
 Rotational constants (GHZ):          54.4462317          11.2350902           9.6085556

 **********************************************************************

            Population analysis using the SCF Density.

 **********************************************************************

 Orbital symmetries:
       Occupied  (A) (A) (A) (A) (A) (A) (A) (A) (A) (A) (A) (A)
                 (A)
       Virtual   (A) (A) (A) (A) (A) (A) (A) (A) (A) (A) (A) (A)
                 (A) (A) (A) (A) (A) (A) (A) (A) (A) (A) (A) (A)
                 (A) (A) (A) (A) (A) (A) (A) (A) (A) (A) (A) (A)
                 (A) (A) (A) (A) (A) (A) (A) (A) (A) (A) (A) (A)
                 (A) (A) (A) (A) (A) (A) (A) (A) (A) (A) (A) (A)
                 (A) (A) (A) (A) (A) (A) (A) (A) (A) (A) (A) (A)
                 (A) (A) (A) (A) (A) (A) (A) (A) (A) (A) (A) (A)
                 (A) (A)
 The electronic state is 1-A.
 Alpha  occ. eigenvalues --  -25.29067 -25.29067 -14.94046  -1.45181  -1.36224
 Alpha  occ. eigenvalues --   -0.95062  -0.69312  -0.66815  -0.63054  -0.55265
 Alpha  occ. eigenvalues --   -0.52503  -0.52054  -0.39124
 Alpha virt. eigenvalues --    0.05334   0.09546   0.10517   0.31093   0.35473
 Alpha virt. eigenvalues --    0.36020   0.41283   0.48287   0.55644   0.58241
 Alpha virt. eigenvalues --    0.59932   0.61608   0.67593   0.73620   0.95482
 Alpha virt. eigenvalues --    0.97450   1.02403   1.11658   1.14128   1.32037
 Alpha virt. eigenvalues --    1.47637   1.79520   1.82415   1.87302   1.93216
 Alpha virt. eigenvalues --    1.98919   2.01109   2.06290   2.06668   2.13102
 Alpha virt. eigenvalues --    2.20576   2.36393   2.44412   2.50011   2.57900
 Alpha virt. eigenvalues --    2.62413   2.71831   2.79574   3.03044   3.21661
 Alpha virt. eigenvalues --    3.24707   3.30148   3.51856   3.65336   3.72628
 Alpha virt. eigenvalues --    3.88607   3.93792   3.99964   4.17999   4.19511
 Alpha virt. eigenvalues --    4.29738   4.58709   4.70049   4.71928   4.80493
 Alpha virt. eigenvalues --    4.81500   5.31157   5.65537   5.85111   6.87607
 Alpha virt. eigenvalues --    6.88686   6.88805   6.89007   6.89241   6.90394
 Alpha virt. eigenvalues --    6.94643   6.98732   7.18415   7.24173   7.24366
 Alpha virt. eigenvalues --    7.28146   7.61027   7.65135   8.26977   8.28435
 Alpha virt. eigenvalues --    8.30979   8.32137   8.60926   8.69110   8.70759
 Alpha virt. eigenvalues --    8.78896   9.23686   9.26688  31.47306  57.06290
 Alpha virt. eigenvalues --   57.33431
          Condensed to atoms (all electrons):
               1          2          3          4
     1  F    9.126873   0.106443  -0.043084  -0.035603
     2  N    0.106443   6.400447   0.106443   0.323119
     3  F   -0.043084   0.106443   9.126876  -0.035603
     4  H   -0.035603   0.323119  -0.035603   0.502374
 Mulliken charges:
               1
     1  F   -0.154628
     2  N    0.063548
     3  F   -0.154632
     4  H    0.245712
 Sum of Mulliken charges =  -0.00000
 Mulliken charges with hydrogens summed into heavy atoms:
               1
     1  F   -0.154628
     2  N    0.309260
     3  F   -0.154632
 Electronic spatial extent (au):  <R**2>=            129.0566
 Charge=             -0.0000 electrons
 Dipole moment (field-independent basis, Debye):
    X=             -0.0000    Y=              1.4161    Z=              1.3760  Tot=              1.9745
 Quadrupole moment (field-independent basis, Debye-Ang):
   XX=            -17.1564   YY=            -14.5635   ZZ=            -15.3535
   XY=              0.0000   XZ=              0.0000   YZ=              1.8250
 Traceless Quadrupole moment (field-independent basis, Debye-Ang):
   XX=             -1.4653   YY=              1.1276   ZZ=              0.3376
   XY=              0.0000   XZ=              0.0000   YZ=              1.8250
 Octapole moment (field-independent basis, Debye-Ang**2):
  XXX=             -0.0000  YYY=             -1.4074  ZZZ=              2.1609  XYY=             -0.0000
  XXY=             -0.5640  XXZ=              0.3034  XZZ=             -0.0000  YZZ=             -0.5321
  YYZ=              2.3455  XYZ=             -0.0000
 Hexadecapole moment (field-independent basis, Debye-Ang**3):
 XXXX=            -79.1945 YYYY=            -27.5398 ZZZZ=            -13.7425 XXXY=              0.0000
 XXXZ=             -0.0000 YYYX=              0.0000 YYYZ=              3.0231 ZZZX=             -0.0000
 ZZZY=              2.1776 XXYY=            -17.0726 XXZZ=            -15.5826 YYZZ=             -6.7289
 XXYZ=              0.1335 YYXZ=             -0.0000 ZZXY=              0.0000
 N-N= 7.707608959563D+01 E-N=-7.603426493607D+02  KE= 2.540298546784D+02
 Unable to Open any file for archive entry.
 1\1\GINC-NODE12\FOpt\RM062X\def2TZVP\F2H1N1\SVSS\20-Jun-2022\0\\# opt 
 freq M062X/def2tzvp\\converted from /home/svss/projects/Project-Philic
 ity/GS/hydrocarbon/set-1/GS/mol_20_hc/mol_20_hc_cregen_best.xyz\\0,1\F
 ,1.0779076507,-0.2365112022,-0.0289969231\N,0.0000039129,0.6053906094,
 0.1171826573\F,-1.0779194656,-0.2364980263,-0.0289883191\H,-0.00000209
 79,1.080568619,-0.7914874151\\Version=AS64L-G16RevC.01\State=1-A\HF=-2
 54.9124732\RMSD=7.094e-09\RMSF=1.020e-04\Dipole=0.0000098,0.5270955,-0
 .5706508\Quadrupole=-1.0893879,0.6903894,0.3989985,-0.0000006,-0.00000
 04,-1.380622\PG=C01 [X(F2H1N1)]\\@
 The archive entry for this job was punched.


 I LOVE MANKIND - IT'S PEOPLE I CAN'T STAND.
     -- LINUS OF PEANUTS
 Job cpu time:       0 days  0 hours  1 minutes 15.0 seconds.
 Elapsed time:       0 days  0 hours  0 minutes 13.0 seconds.
 File lengths (MBytes):  RWF=     22 Int=      0 D2E=      0 Chk=      3 Scr=      2
 Normal termination of Gaussian 16 at Mon Jun 20 17:53:17 2022.
 Link1:  Proceeding to internal job step number  2.
 --------------------------------------------------------------------
 #N Geom=AllCheck Guess=TCheck SCRF=Check GenChk RM062X/def2TZVP Freq
 --------------------------------------------------------------------
 1/10=4,29=7,30=1,38=1,40=1/1,3;
 2/12=2,40=1/2;
 3/5=44,7=101,11=2,14=-4,25=1,30=1,70=2,71=2,74=-55,116=1,140=1/1,2,3;
 4/5=101/1;
 5/5=2,38=6,98=1/2;
 8/6=4,10=90,11=11/1;
 11/6=1,8=1,9=11,15=111,16=1/1,2,10;
 10/6=1/2;
 6/7=2,8=2,9=2,10=2,28=1/1;
 7/8=1,10=1,25=1/1,2,3,16;
 1/10=4,30=1/3;
 99//99;
 Structure from the checkpoint file:  "/home/svss/projects/Project-Philicity/GS/hydrocarbon/set-1/GS/mol_20_hc/mol_20_hc.chk"
 ----------------------------------------------------------------------
 converted from /home/svss/projects/Project-Philicity/GS/hydrocarbon/se
 t-1/GS/mol_20_hc/mol_20_hc_cregen_best.xyz
 ----------------------------------------------------------------------
 Charge =  0 Multiplicity = 1
 Redundant internal coordinates found in file.  (old form).
 F,0,1.0779076507,-0.2365112022,-0.0289969231
 N,0,0.0000039129,0.6053906094,0.1171826573
 F,0,-1.0779194656,-0.2364980263,-0.0289883191
 H,0,-0.0000020979,1.080568619,-0.7914874151
 Recover connectivity data from disk.

 GradGradGradGradGradGradGradGradGradGradGradGradGradGradGradGradGradGrad
 Berny optimization.
 Initialization pass.
                           ----------------------------
                           !    Initial Parameters    !
                           ! (Angstroms and Degrees)  !
 --------------------------                            --------------------------
 ! Name  Definition              Value          Derivative Info.                !
 --------------------------------------------------------------------------------
 ! R1    R(1,2)                  1.3755         calculate D2E/DX2 analytically  !
 ! R2    R(2,3)                  1.3755         calculate D2E/DX2 analytically  !
 ! R3    R(2,4)                  1.0254         calculate D2E/DX2 analytically  !
 ! A1    A(1,2,3)              103.1904         calculate D2E/DX2 analytically  !
 ! A2    A(1,2,4)              100.9214         calculate D2E/DX2 analytically  !
 ! A3    A(3,2,4)              100.9208         calculate D2E/DX2 analytically  !
 ! D1    D(1,2,4,3)            105.8973         calculate D2E/DX2 analytically  !
 --------------------------------------------------------------------------------
 Trust Radius=3.00D-01 FncErr=1.00D-07 GrdErr=1.00D-07 EigMax=2.50D+02 EigMin=1.00D-04
 Number of steps in this run=      2 maximum allowed number of steps=      2.
 GradGradGradGradGradGradGradGradGradGradGradGradGradGradGradGradGradGrad

                          Input orientation:                          
 ---------------------------------------------------------------------
 Center     Atomic      Atomic             Coordinates (Angstroms)
 Number     Number       Type             X           Y           Z
 ---------------------------------------------------------------------
      1          9           0        1.077908   -0.236511   -0.028997
      2          7           0        0.000004    0.605391    0.117183
      3          9           0       -1.077919   -0.236498   -0.028988
      4          1           0       -0.000002    1.080569   -0.791487
 ---------------------------------------------------------------------
                    Distance matrix (angstroms):
                    1          2          3          4
     1  F    0.000000
     2  N    1.375516   0.000000
     3  F    2.155827   1.375522   0.000000
     4  H    1.864934   1.025415   1.864933   0.000000
 Stoichiometry    F2HN
 Framework group  C1[X(F2HN)]
 Deg. of freedom     6
 Full point group                 C1      NOp   1
 Largest Abelian subgroup         C1      NOp   1
 Largest concise Abelian subgroup C1      NOp   1
                         Standard orientation:                         
 ---------------------------------------------------------------------
 Center     Atomic      Atomic             Coordinates (Angstroms)
 Number     Number       Type             X           Y           Z
 ---------------------------------------------------------------------
      1          9           0       -1.077912   -0.276376    0.024982
      2          7           0       -0.000004    0.556403   -0.166420
      3          9           0        1.077915   -0.276374    0.024981
      4          1           0        0.000001    1.079932    0.715279
 ---------------------------------------------------------------------
 Rotational constants (GHZ):          54.4462317          11.2350902           9.6085556
 Standard basis: def2TZVP (5D, 7F)
 There are   114 symmetry adapted cartesian basis functions of A   symmetry.
 There are    99 symmetry adapted basis functions of A   symmetry.
    99 basis functions,   161 primitive gaussians,   114 cartesian basis functions
    13 alpha electrons       13 beta electrons
       nuclear repulsion energy        77.0760895956 Hartrees.
 NAtoms=    4 NActive=    4 NUniq=    4 SFac= 1.00D+00 NAtFMM=   60 NAOKFM=F Big=F
 Integral buffers will be    131072 words long.
 Raffenetti 2 integral format.
 Two-electron integral symmetry is turned on.
 One-electron integrals computed using PRISM.
   1 Symmetry operations used in ECPInt.
 ECPInt:  NShTT=     703 NPrTT=    2280 LenC2=     699 LenP2D=    1975.
 LDataN:  DoStor=T MaxTD1= 6 Len=  172
 NBasis=    99 RedAO= T EigKep=  2.99D-03  NBF=    99
 NBsUse=    99 1.00D-06 EigRej= -1.00D+00 NBFU=    99
 Initial guess from the checkpoint file:  "/home/svss/projects/Project-Philicity/GS/hydrocarbon/set-1/GS/mol_20_hc/mol_20_hc.chk"
 B after Tr=    -0.000000    0.000000    0.000000
         Rot=    1.000000   -0.000000    0.000000   -0.000000 Ang=   0.00 deg.
 Keep R1 ints in memory in canonical form, NReq=19772735.
 Requested convergence on RMS density matrix=1.00D-08 within 128 cycles.
 Requested convergence on MAX density matrix=1.00D-06.
 Requested convergence on             energy=1.00D-06.
 No special actions if energy rises.
 SCF Done:  E(RM062X) =  -254.912473218     A.U. after    1 cycles
            NFock=  1  Conv=0.16D-08     -V/T= 2.0035
 DoSCS=F DFT=T ScalE2(SS,OS)=  1.000000  1.000000
 Range of M.O.s used for correlation:     1    99
 NBasis=    99 NAE=    13 NBE=    13 NFC=     0 NFV=     0
 NROrb=     99 NOA=    13 NOB=    13 NVA=    86 NVB=    86
   1 Symmetry operations used in ECPInt.
 ECPInt:  NShTT=     703 NPrTT=    2280 LenC2=     699 LenP2D=    1975.
 LDataN:  DoStor=T MaxTD1= 7 Len=  274
 Symmetrizing basis deriv contribution to polar:
 IMax=3 JMax=2 DiffMx= 0.00D+00
 G2DrvN: will do     5 centers at a time, making    1 passes.
 Calling FoFCou, ICntrl=  3107 FMM=F I1Cent=   0 AccDes= 0.00D+00.
 End of G2Drv F.D. properties file   721 does not exist.
 End of G2Drv F.D. properties file   722 does not exist.
 End of G2Drv F.D. properties file   788 does not exist.
          IDoAtm=1111
          Differentiating once with respect to electric field.
                with respect to dipole field.
          Differentiating once with respect to nuclear coordinates.
 Keep R1 ints in memory in canonical form, NReq=19748619.
          There are    15 degrees of freedom in the 1st order CPHF.  IDoFFX=6 NUNeed=     3.
     12 vectors produced by pass  0 Test12= 7.45D-15 6.67D-09 XBig12= 6.01D+00 1.24D+00.
 AX will form    12 AO Fock derivatives at one time.
     12 vectors produced by pass  1 Test12= 7.45D-15 6.67D-09 XBig12= 1.17D+00 3.59D-01.
     12 vectors produced by pass  2 Test12= 7.45D-15 6.67D-09 XBig12= 4.04D-02 6.04D-02.
     12 vectors produced by pass  3 Test12= 7.45D-15 6.67D-09 XBig12= 6.63D-04 6.19D-03.
     12 vectors produced by pass  4 Test12= 7.45D-15 6.67D-09 XBig12= 7.30D-06 8.76D-04.
     12 vectors produced by pass  5 Test12= 7.45D-15 6.67D-09 XBig12= 5.17D-08 8.49D-05.
     11 vectors produced by pass  6 Test12= 7.45D-15 6.67D-09 XBig12= 1.99D-10 3.78D-06.
      3 vectors produced by pass  7 Test12= 7.45D-15 6.67D-09 XBig12= 7.95D-13 2.51D-07.
      2 vectors produced by pass  8 Test12= 7.45D-15 6.67D-09 XBig12= 3.44D-15 1.49D-08.
 InvSVY:  IOpt=1 It=  1 EMax= 1.22D-15
 Solved reduced A of dimension    88 with    12 vectors.
 Isotropic polarizability for W=    0.000000       13.21 Bohr**3.
 End of Minotr F.D. properties file   721 does not exist.
 End of Minotr F.D. properties file   722 does not exist.
 End of Minotr F.D. properties file   788 does not exist.

 **********************************************************************

            Population analysis using the SCF Density.

 **********************************************************************

 Orbital symmetries:
       Occupied  (A) (A) (A) (A) (A) (A) (A) (A) (A) (A) (A) (A)
                 (A)
       Virtual   (A) (A) (A) (A) (A) (A) (A) (A) (A) (A) (A) (A)
                 (A) (A) (A) (A) (A) (A) (A) (A) (A) (A) (A) (A)
                 (A) (A) (A) (A) (A) (A) (A) (A) (A) (A) (A) (A)
                 (A) (A) (A) (A) (A) (A) (A) (A) (A) (A) (A) (A)
                 (A) (A) (A) (A) (A) (A) (A) (A) (A) (A) (A) (A)
                 (A) (A) (A) (A) (A) (A) (A) (A) (A) (A) (A) (A)
                 (A) (A) (A) (A) (A) (A) (A) (A) (A) (A) (A) (A)
                 (A) (A)
 The electronic state is 1-A.
 Alpha  occ. eigenvalues --  -25.29067 -25.29067 -14.94046  -1.45181  -1.36224
 Alpha  occ. eigenvalues --   -0.95062  -0.69312  -0.66815  -0.63054  -0.55265
 Alpha  occ. eigenvalues --   -0.52503  -0.52054  -0.39124
 Alpha virt. eigenvalues --    0.05334   0.09546   0.10517   0.31093   0.35473
 Alpha virt. eigenvalues --    0.36020   0.41283   0.48287   0.55644   0.58241
 Alpha virt. eigenvalues --    0.59932   0.61608   0.67593   0.73620   0.95482
 Alpha virt. eigenvalues --    0.97450   1.02403   1.11658   1.14128   1.32037
 Alpha virt. eigenvalues --    1.47637   1.79520   1.82415   1.87302   1.93216
 Alpha virt. eigenvalues --    1.98919   2.01109   2.06290   2.06668   2.13102
 Alpha virt. eigenvalues --    2.20576   2.36393   2.44412   2.50011   2.57900
 Alpha virt. eigenvalues --    2.62413   2.71831   2.79574   3.03044   3.21661
 Alpha virt. eigenvalues --    3.24707   3.30148   3.51856   3.65336   3.72628
 Alpha virt. eigenvalues --    3.88607   3.93792   3.99964   4.17999   4.19511
 Alpha virt. eigenvalues --    4.29738   4.58709   4.70049   4.71928   4.80493
 Alpha virt. eigenvalues --    4.81500   5.31157   5.65537   5.85111   6.87607
 Alpha virt. eigenvalues --    6.88686   6.88805   6.89007   6.89241   6.90394
 Alpha virt. eigenvalues --    6.94643   6.98732   7.18415   7.24173   7.24366
 Alpha virt. eigenvalues --    7.28146   7.61027   7.65135   8.26977   8.28435
 Alpha virt. eigenvalues --    8.30979   8.32137   8.60926   8.69110   8.70759
 Alpha virt. eigenvalues --    8.78896   9.23686   9.26688  31.47306  57.06290
 Alpha virt. eigenvalues --   57.33431
          Condensed to atoms (all electrons):
               1          2          3          4
     1  F    9.126873   0.106443  -0.043084  -0.035603
     2  N    0.106443   6.400447   0.106443   0.323119
     3  F   -0.043084   0.106443   9.126876  -0.035603
     4  H   -0.035603   0.323119  -0.035603   0.502373
 Mulliken charges:
               1
     1  F   -0.154628
     2  N    0.063548
     3  F   -0.154632
     4  H    0.245712
 Sum of Mulliken charges =  -0.00000
 Mulliken charges with hydrogens summed into heavy atoms:
               1
     1  F   -0.154628
     2  N    0.309260
     3  F   -0.154632
 APT charges:
               1
     1  F   -0.403667
     2  N    0.657417
     3  F   -0.403670
     4  H    0.149920
 Sum of APT charges =   0.00000
 APT charges with hydrogens summed into heavy atoms:
               1
     1  F   -0.403667
     2  N    0.807337
     3  F   -0.403670
 Electronic spatial extent (au):  <R**2>=            129.0566
 Charge=             -0.0000 electrons
 Dipole moment (field-independent basis, Debye):
    X=             -0.0000    Y=              1.4161    Z=              1.3760  Tot=              1.9745
 Quadrupole moment (field-independent basis, Debye-Ang):
   XX=            -17.1564   YY=            -14.5635   ZZ=            -15.3535
   XY=              0.0000   XZ=              0.0000   YZ=              1.8250
 Traceless Quadrupole moment (field-independent basis, Debye-Ang):
   XX=             -1.4653   YY=              1.1276   ZZ=              0.3376
   XY=              0.0000   XZ=              0.0000   YZ=              1.8250
 Octapole moment (field-independent basis, Debye-Ang**2):
  XXX=             -0.0000  YYY=             -1.4074  ZZZ=              2.1609  XYY=             -0.0000
  XXY=             -0.5640  XXZ=              0.3034  XZZ=             -0.0000  YZZ=             -0.5321
  YYZ=              2.3455  XYZ=             -0.0000
 Hexadecapole moment (field-independent basis, Debye-Ang**3):
 XXXX=            -79.1945 YYYY=            -27.5398 ZZZZ=            -13.7425 XXXY=              0.0000
 XXXZ=             -0.0000 YYYX=              0.0000 YYYZ=              3.0231 ZZZX=             -0.0000
 ZZZY=              2.1776 XXYY=            -17.0726 XXZZ=            -15.5826 YYZZ=             -6.7289
 XXYZ=              0.1335 YYXZ=             -0.0000 ZZXY=              0.0000
 N-N= 7.707608959563D+01 E-N=-7.603426508662D+02  KE= 2.540298554888D+02
  Exact polarizability:      16.416      -0.000      12.966       0.000       0.891      10.245
 Approx polarizability:      18.632      -0.000      14.427       0.000       0.919      11.037
   1 Symmetry operations used in ECPInt.
 ECPInt:  NShTT=     703 NPrTT=    2280 LenC2=     699 LenP2D=    1975.
 LDataN:  DoStor=T MaxTD1= 8 Len=  415
 Calling FoFJK, ICntrl=    100127 FMM=F ISym2X=0 I1Cent= 0 IOpClX= 0 NMat=1 NMatS=1 NMatT=0.
 Full mass-weighted force constant matrix:
 Low frequencies ---  -17.9107   -0.0017   -0.0010   -0.0010    8.1751   17.9620
 Low frequencies ---  539.8819 1011.1299 1081.9149
 Diagonal vibrational polarizability:
        4.7020503       1.7480211       0.0203870
 Harmonic frequencies (cm**-1), IR intensities (KM/Mole), Raman scattering
 activities (A**4/AMU), depolarization ratios for plane and unpolarized
 incident light, reduced masses (AMU), force constants (mDyne/A),
 and normal coordinates:
                      1                      2                      3
                      A                      A                      A
 Frequencies --    539.8817              1011.1299              1081.9149
 Red. masses --     15.2740                15.2595                13.4633
 Frc consts  --      2.6230                 9.1919                 9.2852
 IR Inten    --      2.7452               170.9865                33.0556
  Atom  AN      X      Y      Z        X      Y      Z        X      Y      Z
     1   9    -0.57   0.15  -0.02    -0.31  -0.24   0.05    -0.25  -0.27   0.07
     2   7    -0.00  -0.36   0.05     0.82  -0.00   0.00     0.00   0.73  -0.22
     3   9     0.57   0.15  -0.02    -0.31   0.24  -0.05     0.25  -0.27   0.07
     4   1     0.00  -0.41   0.06     0.15   0.00  -0.00     0.00  -0.16   0.35
                      4                      5                      6
                      A                      A                      A
 Frequencies --   1355.2498              1506.9296              3394.5329
 Red. masses --      1.2144                 1.0643                 1.0774
 Frc consts  --      1.3141                 1.4240                 7.3146
 IR Inten    --     51.0577                16.9897                 2.9513
  Atom  AN      X      Y      Z        X      Y      Z        X      Y      Z
     1   9    -0.02  -0.03  -0.03    -0.01  -0.02  -0.02     0.00   0.00  -0.00
     2   7     0.00   0.01   0.10    -0.04  -0.00   0.00    -0.00  -0.04  -0.06
     3   9     0.02  -0.03  -0.03    -0.01   0.02   0.02    -0.00   0.00  -0.00
     4   1    -0.00   0.90  -0.42     1.00   0.00  -0.00     0.00   0.50   0.86

 -------------------
 - Thermochemistry -
 -------------------
 Temperature   298.150 Kelvin.  Pressure   1.00000 Atm.
 Atom     1 has atomic number  9 and mass  18.99840
 Atom     2 has atomic number  7 and mass  14.00307
 Atom     3 has atomic number  9 and mass  18.99840
 Atom     4 has atomic number  1 and mass   1.00783
 Molecular mass:    53.00771 amu.
 Principal axes and moments of inertia in atomic units:
                           1         2         3
     Eigenvalues --    33.14722 160.63433 187.82648
           X            1.00000   0.00000   0.00000
           Y           -0.00000   0.99439   0.10574
           Z           -0.00000  -0.10574   0.99439
 This molecule is an asymmetric top.
 Rotational symmetry number  1.
 Rotational temperatures (Kelvin)      2.61301     0.53920     0.46114
 Rotational constants (GHZ):          54.44623    11.23509     9.60856
 Zero-point vibrational energy      53171.8 (Joules/Mol)
                                   12.70838 (Kcal/Mol)
 Warning -- explicit consideration of   1 degrees of freedom as
           vibrations may cause significant error
 Vibrational temperatures:    776.77  1454.79  1556.63  1949.90  2168.14
          (Kelvin)           4883.98
 
 Zero-point correction=                           0.020252 (Hartree/Particle)
 Thermal correction to Energy=                    0.023357
 Thermal correction to Enthalpy=                  0.024301
 Thermal correction to Gibbs Free Energy=        -0.004260
 Sum of electronic and zero-point Energies=           -254.892221
 Sum of electronic and thermal Energies=              -254.889117
 Sum of electronic and thermal Enthalpies=            -254.888172
 Sum of electronic and thermal Free Energies=         -254.916733
 
                     E (Thermal)             CV                S
                      KCal/Mol        Cal/Mol-Kelvin    Cal/Mol-Kelvin
 Total                   14.657              7.981             60.111
 Electronic               0.000              0.000              0.000
 Translational            0.889              2.981             37.826
 Rotational               0.889              2.981             21.530
 Vibrational             12.879              2.019              0.755
 Vibration     1          0.895              1.162              0.566
                       Q            Log10(Q)             Ln(Q)
 Total Bot       0.910864D+02          1.959453          4.511808
 Total V=0       0.188260D+12         11.274758         25.961091
 Vib (Bot)       0.530425D-09         -9.275376        -21.357342
 Vib (Bot)    1  0.293495D+00         -0.532400         -1.225896
 Vib (V=0)       0.109630D+01          0.039929          0.091941
 Vib (V=0)    1  0.107978D+01          0.033333          0.076753
 Electronic      0.100000D+01          0.000000          0.000000
 Translational   0.151692D+08          7.180962         16.534777
 Rotational      0.113205D+05          4.053867          9.334373
 ***** Axes restored to original set *****
 -------------------------------------------------------------------
 Center     Atomic                   Forces (Hartrees/Bohr)
 Number     Number              X              Y              Z
 -------------------------------------------------------------------
      1        9           0.000125761    0.000123827   -0.000041042
      2        7          -0.000002854   -0.000204635    0.000118781
      3        9          -0.000123400    0.000125455   -0.000040301
      4        1           0.000000494   -0.000044648   -0.000037439
 -------------------------------------------------------------------
 Cartesian Forces:  Max     0.000204635 RMS     0.000101985
 FormGI is forming the generalized inverse of G from B-inverse, IUseBI=4.

 GradGradGradGradGradGradGradGradGradGradGradGradGradGradGradGradGradGrad
 Berny optimization.
 Internal  Forces:  Max     0.000243017 RMS     0.000145241
 Search for a local minimum.
 Step number   1 out of a maximum of    2
 All quantities printed in internal units (Hartrees-Bohrs-Radians)
 Second derivative matrix not updated -- analytic derivatives used.
 The second derivative matrix:
                          R1        R2        R3        A1        A2
           R1           0.36443
           R2           0.06050   0.36442
           R3           0.00236   0.00236   0.40966
           A1           0.01448   0.01448   0.00431   0.11182
           A2           0.07595  -0.00632   0.00349  -0.04926   0.25341
           A3          -0.00632   0.07595   0.00349  -0.04926   0.01237
           D1           0.03300   0.03300   0.00631   0.09223   0.01620
                          A3        D1
           A3           0.25340
           D1           0.01621   0.10513
 ITU=  0
     Eigenvalues ---    0.16869   0.18441   0.27984   0.36056   0.40921
     Eigenvalues ---    0.45956
 Angle between quadratic step and forces=  11.44 degrees.
 Linear search not attempted -- first point.
 Iteration  1 RMS(Cart)=  0.00069908 RMS(Int)=  0.00000026
 Iteration  2 RMS(Cart)=  0.00000022 RMS(Int)=  0.00000004
 Variable       Old X    -DE/DX   Delta X   Delta X   Delta X     New X
                                 (Linear)    (Quad)   (Total)
    R1        2.59935   0.00002   0.00000   0.00004   0.00004   2.59939
    R2        2.59936   0.00002   0.00000   0.00003   0.00003   2.59939
    R3        1.93775   0.00002   0.00000   0.00004   0.00004   1.93779
    A1        1.80101   0.00024   0.00000   0.00103   0.00103   1.80204
    A2        1.76141  -0.00017   0.00000  -0.00052  -0.00052   1.76089
    A3        1.76140  -0.00017   0.00000  -0.00051  -0.00051   1.76089
    D1        1.84826   0.00017   0.00000   0.00082   0.00082   1.84908
         Item               Value     Threshold  Converged?
 Maximum Force            0.000243     0.000450     YES
 RMS     Force            0.000145     0.000300     YES
 Maximum Displacement     0.000863     0.001800     YES
 RMS     Displacement     0.000699     0.001200     YES
 Predicted change in Energy=-2.839125D-07
 Optimization completed.
    -- Stationary point found.
                           ----------------------------
                           !   Optimized Parameters   !
                           ! (Angstroms and Degrees)  !
 --------------------------                            --------------------------
 ! Name  Definition              Value          Derivative Info.                !
 --------------------------------------------------------------------------------
 ! R1    R(1,2)                  1.3755         -DE/DX =    0.0                 !
 ! R2    R(2,3)                  1.3755         -DE/DX =    0.0                 !
 ! R3    R(2,4)                  1.0254         -DE/DX =    0.0                 !
 ! A1    A(1,2,3)              103.1904         -DE/DX =    0.0002              !
 ! A2    A(1,2,4)              100.9214         -DE/DX =   -0.0002              !
 ! A3    A(3,2,4)              100.9208         -DE/DX =   -0.0002              !
 ! D1    D(1,2,4,3)            105.8973         -DE/DX =    0.0002              !
 --------------------------------------------------------------------------------
 GradGradGradGradGradGradGradGradGradGradGradGradGradGradGradGradGradGrad


 ----------------------------------------------------------------------

 Electric dipole moment (input orientation):
 (Debye = 10**-18 statcoulomb cm , SI units = C m)
                  (au)            (Debye)         (10**-30 SI)
   Tot        0.776835D+00      0.197452D+01      0.658628D+01
   x          0.000000D+00      0.000000D+00      0.000000D+00
   y          0.527096D+00      0.133974D+01      0.446890D+01
   z         -0.570651D+00     -0.145045D+01     -0.483818D+01

 Dipole polarizability, Alpha (input orientation).
 (esu units = cm**3 , SI units = C**2 m**2 J**-1)
 Alpha(0;0):
               (au)            (10**-24 esu)      (10**-40 SI)
   iso        0.132090D+02      0.195737D+01      0.217786D+01
   aniso      0.557534D+01      0.826180D+00      0.919249D+00
   xx         0.164163D+02      0.243264D+01      0.270668D+01
   yx         0.111465D-04      0.165174D-05      0.183780D-05
   yy         0.128621D+02      0.190596D+01      0.212067D+01
   zx        -0.135217D-04     -0.200371D-05     -0.222943D-05
   zy        -0.103289D+01     -0.153059D+00     -0.170301D+00
   zz         0.103485D+02      0.153350D+01      0.170624D+01

 ----------------------------------------------------------------------

 Dipole orientation:
     9          2.03695177          0.36550660         -0.26297898
     7          0.00000452         -0.99063424          0.61357006
     9         -2.03697105          0.36545700         -0.26302586
     1         -0.00003315         -0.48515195          2.48423161

 Electric dipole moment (dipole orientation):
 (Debye = 10**-18 statcoulomb cm , SI units = C m)
                  (au)            (Debye)         (10**-30 SI)
   Tot        0.776835D+00      0.197452D+01      0.658628D+01
   x          0.000000D+00      0.000000D+00      0.000000D+00
   y          0.000000D+00      0.000000D+00      0.000000D+00
   z          0.776835D+00      0.197452D+01      0.658628D+01

 Dipole polarizability, Alpha (dipole orientation).
 (esu units = cm**3 , SI units = C**2 m**2 J**-1)
 Alpha(0;0):
               (au)            (10**-24 esu)      (10**-40 SI)
   iso        0.132090D+02      0.195737D+01      0.217786D+01
   aniso      0.557534D+01      0.826180D+00      0.919249D+00
   xx         0.164163D+02      0.243264D+01      0.270668D+01
   yx         0.465355D-04      0.689585D-05      0.767267D-05
   yy         0.106752D+02      0.158190D+01      0.176011D+01
   zx         0.735098D-04      0.108930D-04      0.121201D-04
   zy        -0.133464D+01     -0.197773D+00     -0.220053D+00
   zz         0.125354D+02      0.185755D+01      0.206680D+01

 ----------------------------------------------------------------------
 Unable to Open any file for archive entry.
 1\1\GINC-NODE12\Freq\RM062X\def2TZVP\F2H1N1\SVSS\20-Jun-2022\0\\#N Geo
 m=AllCheck Guess=TCheck SCRF=Check GenChk RM062X/def2TZVP Freq\\conver
 ted from /home/svss/projects/Project-Philicity/GS/hydrocarbon/set-1/GS
 /mol_20_hc/mol_20_hc_cregen_best.xyz\\0,1\F,1.0779076507,-0.2365112022
 ,-0.0289969231\N,0.0000039129,0.6053906094,0.1171826573\F,-1.077919465
 6,-0.2364980263,-0.0289883191\H,-0.0000020979,1.080568619,-0.791487415
 1\\Version=AS64L-G16RevC.01\State=1-A\HF=-254.9124732\RMSD=1.626e-09\R
 MSF=1.020e-04\ZeroPoint=0.0202521\Thermal=0.0233566\ETot=-254.8891166\
 HTot=-254.8881724\GTot=-254.9167332\Dipole=0.0000099,0.5270956,-0.5706
 508\DipoleDeriv=-0.6748331,0.1847382,-0.0251206,0.4322231,-0.3866968,0
 .0106566,0.1663297,-0.1043786,-0.1494715,1.1941379,-0.0000041,-0.00000
 35,-0.0000089,0.5514923,-0.0091083,-0.000003,0.1263439,0.2266213,-0.67
 48445,-0.1847351,0.0251247,-0.4322145,-0.3866915,0.0106596,-0.1663263,
 -0.1043744,-0.1494742,0.1555398,0.000001,-0.0000005,0.0000004,0.221896
 ,-0.0122078,-0.0000004,0.0824092,0.0723243\Polar=16.4162744,0.0000111,
 12.8620553,-0.0000135,-1.0328939,10.3485427\Quadrupole=-1.0893881,0.69
 03895,0.3989986,-0.0000006,-0.0000004,-1.3806222\PG=C01 [X(F2H1N1)]\NI
 mag=0\\0.25897588,-0.14549505,0.17318350,-0.00442733,-0.00118493,0.032
 95382,-0.15920650,0.11551200,0.03865694,0.35863202,0.12278468,-0.19250
 247,-0.03421798,-0.00000643,0.47650561,-0.00307350,0.00643416,-0.05046
 251,-0.00000059,-0.10352602,0.45673882,-0.07899639,-0.00426780,-0.0025
 5055,-0.15920304,-0.12277949,0.00307577,0.25897303,0.00426980,0.041282
 07,0.00745945,-0.11550657,-0.19249487,0.00643607,0.14548784,0.17317530
 ,0.00255136,0.00745967,0.00528459,-0.03865506,-0.03421553,-0.05046215,
 0.00442424,-0.00118717,0.03295414,-0.02077299,0.03425085,-0.03167906,-
 0.04022248,0.00000124,-0.00000168,-0.02077360,-0.03425107,0.03167946,0
 .08176907,0.01844058,-0.02196310,0.02794346,0.00000100,-0.09150828,0.0
 9065579,-0.01844056,-0.02196250,0.02794303,-0.00000102,0.13543388,0.00
 494948,-0.01270890,0.01222410,-0.00000129,0.17195953,-0.35581416,-0.00
 494946,-0.01270835,0.01222341,0.00000128,-0.14654227,0.33136665\\-0.00
 012576,-0.00012383,0.00004104,0.00000285,0.00020463,-0.00011878,0.0001
 2340,-0.00012546,0.00004030,-0.00000049,0.00004465,0.00003744\\\@
 The archive entry for this job was punched.


 The number of Unix installations has grown to 10,
  with more expected.
                  -- The Unix Programmer's Manual,
                     2nd Edition, June, 1972.
 Job cpu time:       0 days  0 hours  1 minutes 21.7 seconds.
 Elapsed time:       0 days  0 hours  0 minutes 11.3 seconds.
 File lengths (MBytes):  RWF=     22 Int=      0 D2E=      0 Chk=      3 Scr=      2
 Normal termination of Gaussian 16 at Mon Jun 20 17:53:29 2022.
