 Entering Gaussian System, Link 0=/opt/apps/Gaussian/G16C/g16/g16
 Input=/home/svss/projects/Project-Philicity/GS/hydrocarbon/set-1/GS/mol_7_hc/mol_7_hc.com
 Output=/home/svss/projects/Project-Philicity/GS/hydrocarbon/set-1/GS/mol_7_hc/mol_7_hc.log
 Initial command:
 /opt/apps/Gaussian/G16C/g16/l1.exe "/home/svss/projects/Project-Philicity/GS/hydrocarbon/set-1/Gau-120275.inp" -scrdir="/home/svss/projects/Project-Philicity/GS/hydrocarbon/set-1/"
 Entering Link 1 = /opt/apps/Gaussian/G16C/g16/l1.exe PID=    120276.
  
 Copyright (c) 1988-2019, Gaussian, Inc.  All Rights Reserved.
  
 This is part of the Gaussian(R) 16 program.  It is based on
 the Gaussian(R) 09 system (copyright 2009, Gaussian, Inc.),
 the Gaussian(R) 03 system (copyright 2003, Gaussian, Inc.),
 the Gaussian(R) 98 system (copyright 1998, Gaussian, Inc.),
 the Gaussian(R) 94 system (copyright 1995, Gaussian, Inc.),
 the Gaussian 92(TM) system (copyright 1992, Gaussian, Inc.),
 the Gaussian 90(TM) system (copyright 1990, Gaussian, Inc.),
 the Gaussian 88(TM) system (copyright 1988, Gaussian, Inc.),
 the Gaussian 86(TM) system (copyright 1986, Carnegie Mellon
 University), and the Gaussian 82(TM) system (copyright 1983,
 Carnegie Mellon University). Gaussian is a federally registered
 trademark of Gaussian, Inc.
  
 This software contains proprietary and confidential information,
 including trade secrets, belonging to Gaussian, Inc.
  
 This software is provided under written license and may be
 used, copied, transmitted, or stored only in accord with that
 written license.
  
 The following legend is applicable only to US Government
 contracts under FAR:
  
                    RESTRICTED RIGHTS LEGEND
  
 Use, reproduction and disclosure by the US Government is
 subject to restrictions as set forth in subparagraphs (a)
 and (c) of the Commercial Computer Software - Restricted
 Rights clause in FAR 52.227-19.
  
 Gaussian, Inc.
 340 Quinnipiac St., Bldg. 40, Wallingford CT 06492
  
  
 ---------------------------------------------------------------
 Warning -- This program may not be used in any manner that
 competes with the business of Gaussian, Inc. or will provide
 assistance to any competitor of Gaussian, Inc.  The licensee
 of this program is prohibited from giving any competitor of
 Gaussian, Inc. access to this program.  By using this program,
 the user acknowledges that Gaussian, Inc. is engaged in the
 business of creating and licensing software in the field of
 computational chemistry and represents and warrants to the
 licensee that it is not a competitor of Gaussian, Inc. and that
 it will not use this program in any manner prohibited above.
 ---------------------------------------------------------------
  

 Cite this work as:
 Gaussian 16, Revision C.01,
 M. J. Frisch, G. W. Trucks, H. B. Schlegel, G. E. Scuseria, 
 M. A. Robb, J. R. Cheeseman, G. Scalmani, V. Barone, 
 G. A. Petersson, H. Nakatsuji, X. Li, M. Caricato, A. V. Marenich, 
 J. Bloino, B. G. Janesko, R. Gomperts, B. Mennucci, H. P. Hratchian, 
 J. V. Ortiz, A. F. Izmaylov, J. L. Sonnenberg, D. Williams-Young, 
 F. Ding, F. Lipparini, F. Egidi, J. Goings, B. Peng, A. Petrone, 
 T. Henderson, D. Ranasinghe, V. G. Zakrzewski, J. Gao, N. Rega, 
 G. Zheng, W. Liang, M. Hada, M. Ehara, K. Toyota, R. Fukuda, 
 J. Hasegawa, M. Ishida, T. Nakajima, Y. Honda, O. Kitao, H. Nakai, 
 T. Vreven, K. Throssell, J. A. Montgomery, Jr., J. E. Peralta, 
 F. Ogliaro, M. J. Bearpark, J. J. Heyd, E. N. Brothers, K. N. Kudin, 
 V. N. Staroverov, T. A. Keith, R. Kobayashi, J. Normand, 
 K. Raghavachari, A. P. Rendell, J. C. Burant, S. S. Iyengar, 
 J. Tomasi, M. Cossi, J. M. Millam, M. Klene, C. Adamo, R. Cammi, 
 J. W. Ochterski, R. L. Martin, K. Morokuma, O. Farkas, 
 J. B. Foresman, and D. J. Fox, Gaussian, Inc., Wallingford CT, 2019.
 
 ******************************************
 Gaussian 16:  AS64L-G16RevC.01  3-Jul-2019
                20-Jun-2022 
 ******************************************
 %nproc=8
 Will use up to    8 processors via shared memory.
 %mem=96GB
 %chk=/home/svss/projects/Project-Philicity/GS/hydrocarbon/set-1/GS/mol_7_hc/mol_
 7_hc.chk
 -------------------------
 # opt freq M062X/def2tzvp
 -------------------------
 1/18=20,19=15,26=3,38=1/1,3;
 2/9=110,12=2,17=6,18=5,40=1/2;
 3/5=44,7=101,11=2,25=1,30=1,71=1,74=-55/1,2,3;
 4//1;
 5/5=2,38=5/2;
 6/7=2,8=2,9=2,10=2,28=1/1;
 7//1,2,3,16;
 1/18=20,19=15,26=3/3(2);
 2/9=110/2;
 99//99;
 2/9=110/2;
 3/5=44,7=101,11=2,25=1,30=1,71=1,74=-55/1,2,3;
 4/5=5,16=3,69=1/1;
 5/5=2,38=5/2;
 7//1,2,3,16;
 1/18=20,19=15,26=3/3(-5);
 2/9=110/2;
 6/7=2,8=2,9=2,10=2,19=2,28=1/1;
 99/9=1/99;
 ----------------------------------------------------------------------
 converted from /home/svss/projects/Project-Philicity/GS/hydrocarbon/se
 t-1/GS/mol_7_hc/mol_7_hc_cregen_best.xyz
 ----------------------------------------------------------------------
 Symbolic Z-matrix:
 Charge =  0 Multiplicity = 1
 C                    -2.90299  -0.00414  -0.00262 
 C                    -1.40394   0.00294   0.00893 
 C                    -0.69107  -1.18998   0.0039 
 C                     0.69058  -1.19031  -0.00488 
 C                     1.40396   0.00226  -0.00948 
 C                     2.90297  -0.00428   0.00448 
 C                     0.69199   1.1935   -0.0048 
 C                    -0.69149   1.19383   0.00389 
 H                    -3.29034  -0.79576   0.63578 
 H                    -3.2685   -0.18195  -1.01472 
 H                    -3.29929   0.94937   0.33831 
 H                    -1.22677  -2.12908   0.00701 
 H                     1.22571  -2.12975  -0.00787 
 H                     3.29962   0.93798  -0.36615 
 H                     3.29185  -0.81599  -0.60699 
 H                     3.26655  -0.14847   1.02269 
 H                     1.22563   2.13376  -0.00801 
 H                    -1.22458   2.13441   0.00671 
 

 GradGradGradGradGradGradGradGradGradGradGradGradGradGradGradGradGradGrad
 Berny optimization.
 Initialization pass.
                           ----------------------------
                           !    Initial Parameters    !
                           ! (Angstroms and Degrees)  !
 --------------------------                            --------------------------
 ! Name  Definition              Value          Derivative Info.                !
 --------------------------------------------------------------------------------
 ! R1    R(1,2)                  1.4991         estimate D2E/DX2                !
 ! R2    R(1,9)                  1.0882         estimate D2E/DX2                !
 ! R3    R(1,10)                 1.0907         estimate D2E/DX2                !
 ! R4    R(1,11)                 1.0874         estimate D2E/DX2                !
 ! R5    R(2,3)                  1.3897         estimate D2E/DX2                !
 ! R6    R(2,8)                  1.3877         estimate D2E/DX2                !
 ! R7    R(3,4)                  1.3817         estimate D2E/DX2                !
 ! R8    R(3,12)                 1.0812         estimate D2E/DX2                !
 ! R9    R(4,5)                  1.3897         estimate D2E/DX2                !
 ! R10   R(4,13)                 1.0812         estimate D2E/DX2                !
 ! R11   R(5,6)                  1.4991         estimate D2E/DX2                !
 ! R12   R(5,7)                  1.3878         estimate D2E/DX2                !
 ! R13   R(6,14)                 1.0875         estimate D2E/DX2                !
 ! R14   R(6,15)                 1.0881         estimate D2E/DX2                !
 ! R15   R(6,16)                 1.0907         estimate D2E/DX2                !
 ! R16   R(7,8)                  1.3835         estimate D2E/DX2                !
 ! R17   R(7,17)                 1.0811         estimate D2E/DX2                !
 ! R18   R(8,18)                 1.0811         estimate D2E/DX2                !
 ! A1    A(2,1,9)              110.7839         estimate D2E/DX2                !
 ! A2    A(2,1,10)             110.0616         estimate D2E/DX2                !
 ! A3    A(2,1,11)             110.9695         estimate D2E/DX2                !
 ! A4    A(9,1,10)             107.8484         estimate D2E/DX2                !
 ! A5    A(9,1,11)             108.9179         estimate D2E/DX2                !
 ! A6    A(10,1,11)            108.1652         estimate D2E/DX2                !
 ! A7    A(1,2,3)              120.5882         estimate D2E/DX2                !
 ! A8    A(1,2,8)              121.1575         estimate D2E/DX2                !
 ! A9    A(3,2,8)              118.2469         estimate D2E/DX2                !
 ! A10   A(2,3,4)              120.8762         estimate D2E/DX2                !
 ! A11   A(2,3,12)             119.4349         estimate D2E/DX2                !
 ! A12   A(4,3,12)             119.6889         estimate D2E/DX2                !
 ! A13   A(3,4,5)              120.8742         estimate D2E/DX2                !
 ! A14   A(3,4,13)             119.681          estimate D2E/DX2                !
 ! A15   A(5,4,13)             119.4448         estimate D2E/DX2                !
 ! A16   A(4,5,6)              120.6336         estimate D2E/DX2                !
 ! A17   A(4,5,7)              118.2461         estimate D2E/DX2                !
 ! A18   A(6,5,7)              121.1117         estimate D2E/DX2                !
 ! A19   A(5,6,14)             110.9638         estimate D2E/DX2                !
 ! A20   A(5,6,15)             110.8174         estimate D2E/DX2                !
 ! A21   A(5,6,16)             110.0343         estimate D2E/DX2                !
 ! A22   A(14,6,15)            108.9348         estimate D2E/DX2                !
 ! A23   A(14,6,16)            108.1267         estimate D2E/DX2                !
 ! A24   A(15,6,16)            107.8688         estimate D2E/DX2                !
 ! A25   A(5,7,8)              120.8798         estimate D2E/DX2                !
 ! A26   A(5,7,17)             119.5566         estimate D2E/DX2                !
 ! A27   A(8,7,17)             119.5636         estimate D2E/DX2                !
 ! A28   A(2,8,7)              120.8769         estimate D2E/DX2                !
 ! A29   A(2,8,18)             119.5659         estimate D2E/DX2                !
 ! A30   A(7,8,18)             119.5571         estimate D2E/DX2                !
 ! D1    D(9,1,2,3)             39.5825         estimate D2E/DX2                !
 ! D2    D(9,1,2,8)           -141.4295         estimate D2E/DX2                !
 ! D3    D(10,1,2,3)           -79.6014         estimate D2E/DX2                !
 ! D4    D(10,1,2,8)            99.3866         estimate D2E/DX2                !
 ! D5    D(11,1,2,3)           160.7027         estimate D2E/DX2                !
 ! D6    D(11,1,2,8)           -20.3092         estimate D2E/DX2                !
 ! D7    D(1,2,3,4)            179.0644         estimate D2E/DX2                !
 ! D8    D(1,2,3,12)            -0.9417         estimate D2E/DX2                !
 ! D9    D(8,2,3,4)              0.0474         estimate D2E/DX2                !
 ! D10   D(8,2,3,12)          -179.9586         estimate D2E/DX2                !
 ! D11   D(1,2,8,7)           -179.0634         estimate D2E/DX2                !
 ! D12   D(1,2,8,18)             0.9315         estimate D2E/DX2                !
 ! D13   D(3,2,8,7)             -0.0523         estimate D2E/DX2                !
 ! D14   D(3,2,8,18)           179.9427         estimate D2E/DX2                !
 ! D15   D(2,3,4,5)             -0.0272         estimate D2E/DX2                !
 ! D16   D(2,3,4,13)           179.9509         estimate D2E/DX2                !
 ! D17   D(12,3,4,5)           179.9788         estimate D2E/DX2                !
 ! D18   D(12,3,4,13)           -0.043          estimate D2E/DX2                !
 ! D19   D(3,4,5,6)            178.9568         estimate D2E/DX2                !
 ! D20   D(3,4,5,7)              0.0104         estimate D2E/DX2                !
 ! D21   D(13,4,5,6)            -1.0215         estimate D2E/DX2                !
 ! D22   D(13,4,5,7)          -179.9678         estimate D2E/DX2                !
 ! D23   D(4,5,6,14)           158.9091         estimate D2E/DX2                !
 ! D24   D(4,5,6,15)            37.7485         estimate D2E/DX2                !
 ! D25   D(4,5,6,16)           -81.4644         estimate D2E/DX2                !
 ! D26   D(7,5,6,14)           -22.175          estimate D2E/DX2                !
 ! D27   D(7,5,6,15)          -143.3356         estimate D2E/DX2                !
 ! D28   D(7,5,6,16)            97.4515         estimate D2E/DX2                !
 ! D29   D(4,5,7,8)             -0.0153         estimate D2E/DX2                !
 ! D30   D(4,5,7,17)           179.986          estimate D2E/DX2                !
 ! D31   D(6,5,7,8)           -178.9564         estimate D2E/DX2                !
 ! D32   D(6,5,7,17)             1.045          estimate D2E/DX2                !
 ! D33   D(5,7,8,2)              0.0372         estimate D2E/DX2                !
 ! D34   D(5,7,8,18)          -179.9578         estimate D2E/DX2                !
 ! D35   D(17,7,8,2)          -179.9642         estimate D2E/DX2                !
 ! D36   D(17,7,8,18)            0.0408         estimate D2E/DX2                !
 --------------------------------------------------------------------------------
 Trust Radius=3.00D-01 FncErr=1.00D-07 GrdErr=1.00D-06 EigMax=2.50D+02 EigMin=1.00D-04
 Number of steps in this run=     94 maximum allowed number of steps=    108.
 GradGradGradGradGradGradGradGradGradGradGradGradGradGradGradGradGradGrad

                          Input orientation:                          
 ---------------------------------------------------------------------
 Center     Atomic      Atomic             Coordinates (Angstroms)
 Number     Number       Type             X           Y           Z
 ---------------------------------------------------------------------
      1          6           0       -2.902990   -0.004140   -0.002620
      2          6           0       -1.403940    0.002940    0.008930
      3          6           0       -0.691070   -1.189980    0.003900
      4          6           0        0.690580   -1.190310   -0.004880
      5          6           0        1.403960    0.002260   -0.009480
      6          6           0        2.902970   -0.004280    0.004480
      7          6           0        0.691990    1.193500   -0.004800
      8          6           0       -0.691490    1.193830    0.003890
      9          1           0       -3.290340   -0.795760    0.635780
     10          1           0       -3.268500   -0.181950   -1.014720
     11          1           0       -3.299290    0.949370    0.338310
     12          1           0       -1.226770   -2.129080    0.007010
     13          1           0        1.225710   -2.129750   -0.007870
     14          1           0        3.299620    0.937980   -0.366150
     15          1           0        3.291850   -0.815990   -0.606990
     16          1           0        3.266550   -0.148470    1.022690
     17          1           0        1.225630    2.133760   -0.008010
     18          1           0       -1.224580    2.134410    0.006710
 ---------------------------------------------------------------------
                    Distance matrix (angstroms):
                    1          2          3          4          5
     1  C    0.000000
     2  C    1.499111   0.000000
     3  C    2.509751   1.389700   0.000000
     4  C    3.784277   2.410612   1.381678   0.000000
     5  C    4.306960   2.807960   2.410553   1.389660   0.000000
     6  C    5.805964   4.306918   3.784575   2.510264   1.499089
     7  C    3.789225   2.410507   2.755705   2.383810   1.387795
     8  C    2.515136   1.387743   2.383810   2.755779   2.410587
     9  H    1.088236   2.142281   2.703865   4.051400   4.805169
    10  H    1.090670   2.135094   2.949043   4.208430   4.782920
    11  H    1.087414   2.143962   3.389906   4.540382   4.810253
    12  H    2.706506   2.139370   1.081154   2.134868   3.385797
    13  H    4.643749   3.385810   2.134795   1.081166   2.139449
    14  H    6.284275   4.810245   4.537704   3.386329   2.143901
    15  H    6.276974   4.806292   4.046814   2.696156   2.142587
    16  H    6.255823   4.781643   4.217278   2.962592   2.134792
    17  H    4.649317   3.384571   3.836812   3.366858   2.138947
    18  H    2.718555   2.139004   3.366929   3.836891   3.384605
                    6          7          8          9         10
     6  C    0.000000
     7  C    2.514597   0.000000
     8  C    3.788880   1.383507   0.000000
     9  H    6.275513   4.497383   3.333433   0.000000
    10  H    6.257586   4.312457   3.093755   1.761076   0.000000
    11  H    6.284021   4.013432   2.640496   1.770324   1.763951
    12  H    4.644301   3.836837   3.365749   2.536023   3.000651
    13  H    2.707578   3.365837   3.836923   4.752738   5.000559
    14  H    1.087452   2.644919   4.016385   6.887473   6.694407
    15  H    1.088116   3.340652   4.503282   6.698516   6.603517
    16  H    1.090749   3.079769   4.301837   6.600113   6.845366
    17  H    2.717506   1.081143   2.135172   5.421304   5.154918
    18  H    4.648728   2.135108   1.081149   3.639916   3.253683
                   11         12         13         14         15
    11  H    0.000000
    12  H    3.725849   0.000000
    13  H    5.484200   2.452525   0.000000
    14  H    6.636415   5.480357   3.720273   0.000000
    15  H    6.888629   4.745432   2.520683   1.770445   0.000000
    16  H    6.692076   5.014414   3.025319   1.763617   1.761272
    17  H    4.690162   4.917957   4.263510   2.420659   3.650900
    18  H    2.412198   4.263491   4.918048   4.694556   5.429515
                   16         17         18
    16  H    0.000000
    17  H    3.230522   0.000000
    18  H    5.139456   2.450254   0.000000
 Stoichiometry    C8H10
 Framework group  C1[X(C8H10)]
 Deg. of freedom    48
 Full point group                 C1      NOp   1
 Largest Abelian subgroup         C1      NOp   1
 Largest concise Abelian subgroup C1      NOp   1
                         Standard orientation:                         
 ---------------------------------------------------------------------
 Center     Atomic      Atomic             Coordinates (Angstroms)
 Number     Number       Type             X           Y           Z
 ---------------------------------------------------------------------
      1          6           0       -2.902990   -0.003680   -0.001214
      2          6           0       -1.403934    0.003363    0.009581
      3          6           0       -0.691096   -1.189574    0.004179
      4          6           0        0.690549   -1.189938   -0.005297
      5          6           0        1.403956    0.002615   -0.010244
      6          6           0        2.902973   -0.003962    0.002961
      7          6           0        0.692018    1.193872   -0.005192
      8          6           0       -0.691458    1.194236    0.004195
      9          1           0       -3.290038   -0.795297    0.637372
     10          1           0       -3.269014   -0.181470   -1.013132
     11          1           0       -3.299095    0.949836    0.339925
     12          1           0       -1.226817   -2.128661    0.007549
     13          1           0        1.225655   -2.129391   -0.008567
     14          1           0        3.299459    0.938292   -0.367859
     15          1           0        3.291525   -0.815675   -0.608713
     16          1           0        3.267062   -0.148172    1.020986
     17          1           0        1.225679    2.134119   -0.008661
     18          1           0       -1.224523    2.134829    0.007293
 ---------------------------------------------------------------------
 Rotational constants (GHZ):           5.4461665           1.4565282           1.1657529
 Standard basis: def2TZVP (5D, 7F)
 There are   348 symmetry adapted cartesian basis functions of A   symmetry.
 There are   308 symmetry adapted basis functions of A   symmetry.
   308 basis functions,   488 primitive gaussians,   348 cartesian basis functions
    29 alpha electrons       29 beta electrons
       nuclear repulsion energy       342.3603135047 Hartrees.
 NAtoms=   18 NActive=   18 NUniq=   18 SFac= 1.00D+00 NAtFMM=   60 NAOKFM=F Big=F
 Integral buffers will be    131072 words long.
 Raffenetti 2 integral format.
 Two-electron integral symmetry is turned on.
 One-electron integrals computed using PRISM.
   1 Symmetry operations used in ECPInt.
 ECPInt:  NShTT=    8256 NPrTT=   24516 LenC2=    8049 LenP2D=   19285.
 LDataN:  DoStor=T MaxTD1= 6 Len=  172
 NBasis=   308 RedAO= T EigKep=  6.91D-06  NBF=   308
 NBsUse=   308 1.00D-06 EigRej= -1.00D+00 NBFU=   308
 ExpMin= 9.52D-02 ExpMax= 1.36D+04 ExpMxC= 4.63D+02 IAcc=3 IRadAn=         5 AccDes= 0.00D+00
 Harris functional with IExCor= 1009 and IRadAn=       5 diagonalized for initial guess.
 HarFok:  IExCor= 1009 AccDes= 0.00D+00 IRadAn=         5 IDoV= 1 UseB2=F ITyADJ=14
 ICtDFT=  3500011 ScaDFX=  1.000000  1.000000  1.000000  1.000000
 FoFCou: FMM=F IPFlag=           0 FMFlag=      100000 FMFlg1=           0
         NFxFlg=           0 DoJE=T BraDBF=F KetDBF=T FulRan=T
         wScrn=  0.000000 ICntrl=       500 IOpCl=  0 I1Cent=   200000004 NGrid=           0
         NMat0=    1 NMatS0=      1 NMatT0=    0 NMatD0=    1 NMtDS0=    0 NMtDT0=    0
 Petite list used in FoFCou.
 Requested convergence on RMS density matrix=1.00D-08 within 128 cycles.
 Requested convergence on MAX density matrix=1.00D-06.
 Requested convergence on             energy=1.00D-06.
 No special actions if energy rises.
 Integral accuracy reduced to 1.0D-05 until final iterations.
 Initial convergence to 1.0D-05 achieved.  Increase integral accuracy.
 SCF Done:  E(RM062X) =  -310.844938894     A.U. after   12 cycles
            NFock= 12  Conv=0.96D-08     -V/T= 2.0048

 **********************************************************************

            Population analysis using the SCF Density.

 **********************************************************************

 Orbital symmetries:
       Occupied  (A) (A) (A) (A) (A) (A) (A) (A) (A) (A) (A) (A)
                 (A) (A) (A) (A) (A) (A) (A) (A) (A) (A) (A) (A)
                 (A) (A) (A) (A) (A)
       Virtual   (A) (A) (A) (A) (A) (A) (A) (A) (A) (A) (A) (A)
                 (A) (A) (A) (A) (A) (A) (A) (A) (A) (A) (A) (A)
                 (A) (A) (A) (A) (A) (A) (A) (A) (A) (A) (A) (A)
                 (A) (A) (A) (A) (A) (A) (A) (A) (A) (A) (A) (A)
                 (A) (A) (A) (A) (A) (A) (A) (A) (A) (A) (A) (A)
                 (A) (A) (A) (A) (A) (A) (A) (A) (A) (A) (A) (A)
                 (A) (A) (A) (A) (A) (A) (A) (A) (A) (A) (A) (A)
                 (A) (A) (A) (A) (A) (A) (A) (A) (A) (A) (A) (A)
                 (A) (A) (A) (A) (A) (A) (A) (A) (A) (A) (A) (A)
                 (A) (A) (A) (A) (A) (A) (A) (A) (A) (A) (A) (A)
                 (A) (A) (A) (A) (A) (A) (A) (A) (A) (A) (A) (A)
                 (A) (A) (A) (A) (A) (A) (A) (A) (A) (A) (A) (A)
                 (A) (A) (A) (A) (A) (A) (A) (A) (A) (A) (A) (A)
                 (A) (A) (A) (A) (A) (A) (A) (A) (A) (A) (A) (A)
                 (A) (A) (A) (A) (A) (A) (A) (A) (A) (A) (A) (A)
                 (A) (A) (A) (A) (A) (A) (A) (A) (A) (A) (A) (A)
                 (A) (A) (A) (A) (A) (A) (A) (A) (A) (A) (A) (A)
                 (A) (A) (A) (A) (A) (A) (A) (A) (A) (A) (A) (A)
                 (A) (A) (A) (A) (A) (A) (A) (A) (A) (A) (A) (A)
                 (A) (A) (A) (A) (A) (A) (A) (A) (A) (A) (A) (A)
                 (A) (A) (A) (A) (A) (A) (A) (A) (A) (A) (A) (A)
                 (A) (A) (A) (A) (A) (A) (A) (A) (A) (A) (A) (A)
                 (A) (A) (A) (A) (A) (A) (A) (A) (A) (A) (A) (A)
                 (A) (A) (A)
 The electronic state is 1-A.
 Alpha  occ. eigenvalues --  -10.54010 -10.54007 -10.53164 -10.53140 -10.53080
 Alpha  occ. eigenvalues --  -10.53058 -10.52728 -10.52728  -0.96457  -0.88541
 Alpha  occ. eigenvalues --   -0.83868  -0.81234  -0.74068  -0.68891  -0.65130
 Alpha  occ. eigenvalues --   -0.56285  -0.53998  -0.51836  -0.49336  -0.48182
 Alpha  occ. eigenvalues --   -0.48139  -0.46465  -0.45483  -0.43329  -0.41072
 Alpha  occ. eigenvalues --   -0.39219  -0.38941  -0.30425  -0.28353
 Alpha virt. eigenvalues --    0.02496   0.03224   0.07928   0.08362   0.10558
 Alpha virt. eigenvalues --    0.10952   0.13538   0.14216   0.14347   0.16537
 Alpha virt. eigenvalues --    0.16589   0.17108   0.17693   0.18664   0.20217
 Alpha virt. eigenvalues --    0.22100   0.22647   0.22818   0.24974   0.25125
 Alpha virt. eigenvalues --    0.26456   0.27690   0.30557   0.31205   0.31334
 Alpha virt. eigenvalues --    0.32515   0.32818   0.35679   0.35867   0.37032
 Alpha virt. eigenvalues --    0.38021   0.38073   0.39709   0.40149   0.40774
 Alpha virt. eigenvalues --    0.41903   0.42645   0.45655   0.46169   0.46283
 Alpha virt. eigenvalues --    0.47032   0.47679   0.48451   0.50193   0.51936
 Alpha virt. eigenvalues --    0.52733   0.53424   0.54573   0.55341   0.55790
 Alpha virt. eigenvalues --    0.57189   0.57428   0.58472   0.60062   0.65102
 Alpha virt. eigenvalues --    0.65603   0.67805   0.69081   0.70404   0.73502
 Alpha virt. eigenvalues --    0.73636   0.74493   0.78516   0.79628   0.79811
 Alpha virt. eigenvalues --    0.82258   0.84173   0.84808   0.87864   0.88422
 Alpha virt. eigenvalues --    0.91230   0.92569   0.93643   0.95608   0.99823
 Alpha virt. eigenvalues --    1.00046   1.00112   1.03860   1.03998   1.05816
 Alpha virt. eigenvalues --    1.08245   1.10361   1.10949   1.12512   1.17335
 Alpha virt. eigenvalues --    1.18413   1.18960   1.24649   1.26441   1.27266
 Alpha virt. eigenvalues --    1.28196   1.28919   1.31164   1.34498   1.35015
 Alpha virt. eigenvalues --    1.37761   1.38631   1.39189   1.43941   1.49009
 Alpha virt. eigenvalues --    1.50624   1.53798   1.53895   1.56301   1.56675
 Alpha virt. eigenvalues --    1.58783   1.59073   1.59385   1.60902   1.61767
 Alpha virt. eigenvalues --    1.62825   1.64733   1.65335   1.66832   1.68103
 Alpha virt. eigenvalues --    1.68227   1.70806   1.73330   1.75066   1.77442
 Alpha virt. eigenvalues --    1.80027   1.82405   1.85808   1.89958   1.90127
 Alpha virt. eigenvalues --    1.93327   1.94818   2.00548   2.02526   2.03313
 Alpha virt. eigenvalues --    2.04738   2.05226   2.07344   2.08907   2.13441
 Alpha virt. eigenvalues --    2.16988   2.18057   2.20574   2.20780   2.21680
 Alpha virt. eigenvalues --    2.24141   2.24670   2.25598   2.29971   2.31288
 Alpha virt. eigenvalues --    2.34985   2.37395   2.38938   2.39389   2.42415
 Alpha virt. eigenvalues --    2.43631   2.47339   2.50270   2.51030   2.51403
 Alpha virt. eigenvalues --    2.56049   2.56499   2.56969   2.57760   2.62774
 Alpha virt. eigenvalues --    2.63439   2.64151   2.66348   2.66550   2.72339
 Alpha virt. eigenvalues --    2.72407   2.74897   2.75061   2.75982   2.76584
 Alpha virt. eigenvalues --    2.78378   2.79426   2.82091   2.84706   2.86232
 Alpha virt. eigenvalues --    2.87245   2.92159   2.94170   2.94577   2.95360
 Alpha virt. eigenvalues --    2.96304   2.98346   3.00192   3.02098   3.06822
 Alpha virt. eigenvalues --    3.06867   3.08352   3.10178   3.11187   3.13136
 Alpha virt. eigenvalues --    3.13671   3.14830   3.15101   3.16268   3.17517
 Alpha virt. eigenvalues --    3.18264   3.19934   3.21417   3.24344   3.26460
 Alpha virt. eigenvalues --    3.27835   3.29119   3.29787   3.30617   3.32537
 Alpha virt. eigenvalues --    3.33531   3.35995   3.37209   3.40328   3.42027
 Alpha virt. eigenvalues --    3.42384   3.43274   3.44994   3.47685   3.49524
 Alpha virt. eigenvalues --    3.50205   3.51319   3.51889   3.57065   3.57196
 Alpha virt. eigenvalues --    3.59345   3.67401   3.68736   3.71100   3.72434
 Alpha virt. eigenvalues --    3.72750   3.77164   3.78678   3.79049   3.84714
 Alpha virt. eigenvalues --    3.85653   3.88011   3.90531   3.93318   4.01339
 Alpha virt. eigenvalues --    4.02919   4.04698   4.10694   4.12068   4.12430
 Alpha virt. eigenvalues --    4.17372   4.17981   4.20346   4.20853   4.23794
 Alpha virt. eigenvalues --    4.26063   4.29654   4.30198   4.32386   4.39818
 Alpha virt. eigenvalues --    4.41483   4.47163   4.47511   4.53992   4.54061
 Alpha virt. eigenvalues --    4.55409   4.62098   4.66811   4.70544   4.73072
 Alpha virt. eigenvalues --    4.85398   4.90286   4.90725   4.97809   5.01642
 Alpha virt. eigenvalues --    5.18761   5.29647   5.35498   5.39329   5.50396
 Alpha virt. eigenvalues --    5.61928  22.07659  22.53130  22.55334  22.84129
 Alpha virt. eigenvalues --   22.86970  22.87866  23.06303  23.45722
          Condensed to atoms (all electrons):
               1          2          3          4          5          6
     1  C    5.072123   0.268018  -0.067373   0.005540  -0.000608   0.000146
     2  C    0.268018   4.935159   0.515275  -0.054526  -0.038742  -0.000631
     3  C   -0.067373   0.515275   4.992392   0.515939  -0.054536   0.006021
     4  C    0.005540  -0.054526   0.515939   4.992167   0.515810  -0.067159
     5  C   -0.000608  -0.038742  -0.054536   0.515810   4.936635   0.268036
     6  C    0.000146  -0.000631   0.006021  -0.067159   0.268036   5.071825
     7  C    0.009853  -0.051954  -0.041402  -0.068193   0.528511  -0.065160
     8  C   -0.064800   0.530567  -0.068333  -0.041362  -0.051523   0.009524
     9  H    0.431837  -0.054109  -0.015040   0.001518   0.000089  -0.000003
    10  H    0.394438  -0.029020  -0.004984  -0.000936   0.000242  -0.000010
    11  H    0.433833  -0.057609   0.012277  -0.000588  -0.000089  -0.000003
    12  H   -0.003220  -0.039568   0.405586  -0.026968   0.004215  -0.000239
    13  H   -0.000234   0.004219  -0.026635   0.405546  -0.039728  -0.003570
    14  H   -0.000003  -0.000080  -0.000620   0.012095  -0.057490   0.434078
    15  H   -0.000003   0.000073   0.001666  -0.015225  -0.054819   0.432591
    16  H   -0.000010   0.000256  -0.000998  -0.004722  -0.028293   0.393355
    17  H   -0.000283   0.003844  -0.000170   0.006979  -0.037434  -0.006449
    18  H   -0.006744  -0.036932   0.007091  -0.000182   0.003796  -0.000276
               7          8          9         10         11         12
     1  C    0.009853  -0.064800   0.431837   0.394438   0.433833  -0.003220
     2  C   -0.051954   0.530567  -0.054109  -0.029020  -0.057609  -0.039568
     3  C   -0.041402  -0.068333  -0.015040  -0.004984   0.012277   0.405586
     4  C   -0.068193  -0.041362   0.001518  -0.000936  -0.000588  -0.026968
     5  C    0.528511  -0.051523   0.000089   0.000242  -0.000089   0.004215
     6  C   -0.065160   0.009524  -0.000003  -0.000010  -0.000003  -0.000239
     7  C    4.997049   0.493244  -0.000955  -0.001022   0.002564  -0.000470
     8  C    0.493244   4.995076   0.010077  -0.003073  -0.015708   0.006696
     9  H   -0.000955   0.010077   0.538552  -0.032746  -0.025673  -0.000029
    10  H   -0.001022  -0.003073  -0.032746   0.545902  -0.025800   0.000543
    11  H    0.002564  -0.015708  -0.025673  -0.025800   0.537154   0.000002
    12  H   -0.000470   0.006696  -0.000029   0.000543   0.000002   0.517469
    13  H    0.006735  -0.000485  -0.000017   0.000005   0.000012  -0.004384
    14  H   -0.015679   0.002489   0.000001  -0.000001   0.000000   0.000012
    15  H    0.010470  -0.000934   0.000001  -0.000001   0.000001  -0.000018
    16  H   -0.003369  -0.001025  -0.000002   0.000002  -0.000001   0.000006
    17  H    0.402730  -0.024892   0.000011   0.000014  -0.000023   0.000089
    18  H   -0.024882   0.402293   0.000065   0.000408   0.000768  -0.000298
              13         14         15         16         17         18
     1  C   -0.000234  -0.000003  -0.000003  -0.000010  -0.000283  -0.006744
     2  C    0.004219  -0.000080   0.000073   0.000256   0.003844  -0.036932
     3  C   -0.026635  -0.000620   0.001666  -0.000998  -0.000170   0.007091
     4  C    0.405546   0.012095  -0.015225  -0.004722   0.006979  -0.000182
     5  C   -0.039728  -0.057490  -0.054819  -0.028293  -0.037434   0.003796
     6  C   -0.003570   0.434078   0.432591   0.393355  -0.006449  -0.000276
     7  C    0.006735  -0.015679   0.010470  -0.003369   0.402730  -0.024882
     8  C   -0.000485   0.002489  -0.000934  -0.001025  -0.024892   0.402293
     9  H   -0.000017   0.000001   0.000001  -0.000002   0.000011   0.000065
    10  H    0.000005  -0.000001  -0.000001   0.000002   0.000014   0.000408
    11  H    0.000012   0.000000   0.000001  -0.000001  -0.000023   0.000768
    12  H   -0.004384   0.000012  -0.000018   0.000006   0.000089  -0.000298
    13  H    0.517771   0.000003   0.000013   0.000559  -0.000297   0.000089
    14  H    0.000003   0.537219  -0.025823  -0.026362   0.000665  -0.000022
    15  H    0.000013  -0.025823   0.538380  -0.032083   0.000058   0.000011
    16  H    0.000559  -0.026362  -0.032083   0.546115   0.000436   0.000014
    17  H   -0.000297   0.000665   0.000058   0.000436   0.520075  -0.003969
    18  H    0.000089  -0.000022   0.000011   0.000014  -0.003969   0.520304
 Mulliken charges:
               1
     1  C   -0.472511
     2  C    0.105760
     3  C   -0.176154
     4  C   -0.175731
     5  C    0.105927
     6  C   -0.472077
     7  C   -0.178069
     8  C   -0.177831
     9  H    0.146424
    10  H    0.156039
    11  H    0.138881
    12  H    0.140576
    13  H    0.140399
    14  H    0.139518
    15  H    0.145643
    16  H    0.156122
    17  H    0.138615
    18  H    0.138468
 Sum of Mulliken charges =  -0.00000
 Mulliken charges with hydrogens summed into heavy atoms:
               1
     1  C   -0.031167
     2  C    0.105760
     3  C   -0.035578
     4  C   -0.035332
     5  C    0.105927
     6  C   -0.030793
     7  C   -0.039454
     8  C   -0.039363
 Electronic spatial extent (au):  <R**2>=           1054.1679
 Charge=             -0.0000 electrons
 Dipole moment (field-independent basis, Debye):
    X=              0.0000    Y=             -0.0404    Z=              0.0028  Tot=              0.0404
 Quadrupole moment (field-independent basis, Debye-Ang):
   XX=            -44.5544   YY=            -45.4420   ZZ=            -52.3837
   XY=              0.0074   XZ=              0.1002   YZ=             -0.0011
 Traceless Quadrupole moment (field-independent basis, Debye-Ang):
   XX=              2.9056   YY=              2.0180   ZZ=             -4.9237
   XY=              0.0074   XZ=              0.1002   YZ=             -0.0011
 Octapole moment (field-independent basis, Debye-Ang**2):
  XXX=              0.0045  YYY=              0.4866  ZZZ=              0.0424  XYY=              0.0020
  XXY=             -0.1206  XXZ=              0.0043  XZZ=             -0.0030  YZZ=             -0.6253
  YYZ=             -0.0276  XYZ=              0.0165
 Hexadecapole moment (field-independent basis, Debye-Ang**3):
 XXXX=          -1079.6637 YYYY=           -300.0770 ZZZZ=            -73.8066 XXXY=             -0.0010
 XXXZ=             -0.4754 YYYX=             -0.1677 YYYZ=             -0.0060 ZZZX=              4.2901
 ZZZY=             -0.0005 XXYY=           -220.9818 XXZZ=           -190.2337 YYZZ=            -72.5632
 XXYZ=             -0.0053 YYXZ=             -3.9007 ZZXY=              0.1983
 N-N= 3.423603135047D+02 E-N=-1.404958662729D+03  KE= 3.093646816220D+02
   1 Symmetry operations used in ECPInt.
 ECPInt:  NShTT=    8256 NPrTT=   24516 LenC2=    8049 LenP2D=   19285.
 LDataN:  DoStor=T MaxTD1= 7 Len=  274
 Calling FoFJK, ICntrl=      2127 FMM=F ISym2X=0 I1Cent= 0 IOpClX= 0 NMat=1 NMatS=1 NMatT=0.
 ***** Axes restored to original set *****
 -------------------------------------------------------------------
 Center     Atomic                   Forces (Hartrees/Bohr)
 Number     Number              X              Y              Z
 -------------------------------------------------------------------
      1        6           0.000373591   -0.000271174   -0.001319653
      2        6          -0.001405380    0.000648174    0.000781461
      3        6          -0.000159674    0.000077439    0.000294652
      4        6           0.000146022    0.000015147   -0.000257183
      5        6           0.001393133    0.000673624   -0.000807212
      6        6          -0.000368326   -0.000222474    0.001384920
      7        6           0.001236423   -0.000381889   -0.000292046
      8        6          -0.001211357   -0.000331392    0.000282771
      9        1          -0.001495496   -0.000426932    0.000606015
     10        1          -0.001878719   -0.000044496   -0.000517782
     11        1          -0.001391619    0.000614205    0.000378135
     12        1          -0.001217151   -0.001796637    0.000129356
     13        1           0.001216707   -0.001767202   -0.000149631
     14        1           0.001398469    0.000608915   -0.000407370
     15        1           0.001486704   -0.000455184   -0.000607155
     16        1           0.001880725   -0.000040091    0.000497775
     17        1           0.001293214    0.001561193   -0.000138838
     18        1          -0.001297268    0.001538774    0.000141786
 -------------------------------------------------------------------
 Cartesian Forces:  Max     0.001880725 RMS     0.000956384

 GradGradGradGradGradGradGradGradGradGradGradGradGradGradGradGradGradGrad
 Berny optimization.
 FormGI is forming the generalized inverse of G from B-inverse, IUseBI=4.
 Internal  Forces:  Max     0.005253330 RMS     0.001465140
 Search for a local minimum.
 Step number   1 out of a maximum of   94
 All quantities printed in internal units (Hartrees-Bohrs-Radians)
 Mixed Optimization -- RFO/linear search
 Second derivative matrix not updated -- first step.
 ITU=  0
     Eigenvalues ---    0.00778   0.00778   0.01594   0.01693   0.02236
     Eigenvalues ---    0.02257   0.02267   0.02278   0.02279   0.02287
     Eigenvalues ---    0.02295   0.07241   0.07244   0.07396   0.07399
     Eigenvalues ---    0.16000   0.16000   0.16000   0.16000   0.16000
     Eigenvalues ---    0.16000   0.16000   0.16000   0.16000   0.16000
     Eigenvalues ---    0.22000   0.22962   0.23998   0.24995   0.24996
     Eigenvalues ---    0.32471   0.32473   0.34726   0.34735   0.35017
     Eigenvalues ---    0.35031   0.35109   0.35113   0.35854   0.35855
     Eigenvalues ---    0.35856   0.35857   0.43368   0.43447   0.47508
     Eigenvalues ---    0.47548   0.47984   0.48652
 RFO step:  Lambda=-5.79026614D-04 EMin= 7.77704463D-03
 Linear search not attempted -- first point.
 Iteration  1 RMS(Cart)=  0.01403850 RMS(Int)=  0.00002800
 Iteration  2 RMS(Cart)=  0.00002226 RMS(Int)=  0.00001760
 Iteration  3 RMS(Cart)=  0.00000000 RMS(Int)=  0.00001760
 Variable       Old X    -DE/DX   Delta X   Delta X   Delta X     New X
                                 (Linear)    (Quad)   (Total)
    R1        2.83291   0.00440   0.00000   0.01352   0.01352   2.84643
    R2        2.05647   0.00120   0.00000   0.00342   0.00342   2.05988
    R3        2.06107   0.00112   0.00000   0.00321   0.00321   2.06428
    R4        2.05491   0.00116   0.00000   0.00331   0.00331   2.05822
    R5        2.62615   0.00305   0.00000   0.00642   0.00642   2.63257
    R6        2.62245   0.00244   0.00000   0.00512   0.00512   2.62757
    R7        2.61099   0.00443   0.00000   0.00906   0.00906   2.62006
    R8        2.04308   0.00216   0.00000   0.00603   0.00603   2.04911
    R9        2.62608   0.00307   0.00000   0.00647   0.00647   2.63255
   R10        2.04311   0.00214   0.00000   0.00595   0.00595   2.04906
   R11        2.83287   0.00441   0.00000   0.01354   0.01354   2.84641
   R12        2.62255   0.00241   0.00000   0.00505   0.00505   2.62761
   R13        2.05499   0.00118   0.00000   0.00334   0.00334   2.05833
   R14        2.05624   0.00121   0.00000   0.00345   0.00345   2.05969
   R15        2.06122   0.00110   0.00000   0.00316   0.00316   2.06437
   R16        2.61445   0.00525   0.00000   0.01084   0.01084   2.62529
   R17        2.04306   0.00200   0.00000   0.00556   0.00556   2.04862
   R18        2.04308   0.00198   0.00000   0.00551   0.00551   2.04859
    A1        1.93354   0.00101   0.00000   0.00598   0.00595   1.93949
    A2        1.92094   0.00194   0.00000   0.01305   0.01301   1.93394
    A3        1.93678   0.00078   0.00000   0.00422   0.00420   1.94099
    A4        1.88231  -0.00129   0.00000  -0.00679  -0.00685   1.87546
    A5        1.90098  -0.00127   0.00000  -0.00973  -0.00974   1.89124
    A6        1.88784  -0.00131   0.00000  -0.00756  -0.00759   1.88025
    A7        2.10466   0.00104   0.00000   0.00426   0.00425   2.10891
    A8        2.11460   0.00086   0.00000   0.00356   0.00356   2.11815
    A9        2.06380  -0.00190   0.00000  -0.00792  -0.00792   2.05587
   A10        2.10969   0.00097   0.00000   0.00399   0.00399   2.11368
   A11        2.08453  -0.00065   0.00000  -0.00306  -0.00306   2.08147
   A12        2.08897  -0.00031   0.00000  -0.00093  -0.00093   2.08804
   A13        2.10965   0.00097   0.00000   0.00400   0.00400   2.11365
   A14        2.08883  -0.00030   0.00000  -0.00084  -0.00084   2.08799
   A15        2.08470  -0.00067   0.00000  -0.00317  -0.00317   2.08154
   A16        2.10545   0.00102   0.00000   0.00419   0.00418   2.10963
   A17        2.06378  -0.00190   0.00000  -0.00791  -0.00791   2.05587
   A18        2.11380   0.00088   0.00000   0.00362   0.00362   2.11742
   A19        1.93668   0.00079   0.00000   0.00428   0.00426   1.94094
   A20        1.93413   0.00098   0.00000   0.00571   0.00568   1.93981
   A21        1.92046   0.00196   0.00000   0.01324   0.01319   1.93366
   A22        1.90127  -0.00127   0.00000  -0.00980  -0.00980   1.89147
   A23        1.88717  -0.00131   0.00000  -0.00743  -0.00747   1.87970
   A24        1.88267  -0.00129   0.00000  -0.00682  -0.00687   1.87579
   A25        2.10975   0.00093   0.00000   0.00390   0.00390   2.11365
   A26        2.08666  -0.00083   0.00000  -0.00421  -0.00421   2.08245
   A27        2.08678  -0.00010   0.00000   0.00031   0.00031   2.08709
   A28        2.10970   0.00093   0.00000   0.00394   0.00393   2.11364
   A29        2.08682  -0.00085   0.00000  -0.00433  -0.00433   2.08249
   A30        2.08667  -0.00009   0.00000   0.00039   0.00039   2.08705
    D1        0.69084   0.00029   0.00000   0.00667   0.00671   0.69755
    D2       -2.46841   0.00016   0.00000   0.00007   0.00007  -2.46834
    D3       -1.38931   0.00002   0.00000   0.00300   0.00301  -1.38629
    D4        1.73462  -0.00011   0.00000  -0.00360  -0.00363   1.73100
    D5        2.80479  -0.00011   0.00000   0.00125   0.00125   2.80604
    D6       -0.35446  -0.00024   0.00000  -0.00536  -0.00539  -0.35985
    D7        3.12526  -0.00022   0.00000  -0.01071  -0.01070   3.11457
    D8       -0.01644  -0.00014   0.00000  -0.00769  -0.00767  -0.02411
    D9        0.00083  -0.00012   0.00000  -0.00440  -0.00440  -0.00357
   D10       -3.14087  -0.00004   0.00000  -0.00138  -0.00137   3.14094
   D11       -3.12525   0.00022   0.00000   0.01067   0.01066  -3.11459
   D12        0.01626   0.00015   0.00000   0.00797   0.00795   0.02421
   D13       -0.00091   0.00012   0.00000   0.00433   0.00433   0.00342
   D14        3.14059   0.00005   0.00000   0.00163   0.00162  -3.14097
   D15       -0.00048   0.00012   0.00000   0.00437   0.00440   0.00392
   D16        3.14074   0.00006   0.00000   0.00215   0.00217  -3.14028
   D17        3.14122   0.00004   0.00000   0.00135   0.00136  -3.14060
   D18       -0.00075  -0.00001   0.00000  -0.00088  -0.00087  -0.00162
   D19        3.12338  -0.00021   0.00000  -0.01005  -0.01005   3.11334
   D20        0.00018  -0.00011   0.00000  -0.00407  -0.00407  -0.00389
   D21       -0.01783  -0.00015   0.00000  -0.00784  -0.00782  -0.02565
   D22       -3.14103  -0.00006   0.00000  -0.00186  -0.00185   3.14031
   D23        2.77349  -0.00012   0.00000   0.00144   0.00144   2.77493
   D24        0.65884   0.00030   0.00000   0.00709   0.00713   0.66596
   D25       -1.42182   0.00003   0.00000   0.00349   0.00350  -1.41832
   D26       -0.38703  -0.00024   0.00000  -0.00484  -0.00487  -0.39190
   D27       -2.50168   0.00017   0.00000   0.00081   0.00082  -2.50086
   D28        1.70085  -0.00009   0.00000  -0.00278  -0.00281   1.69804
   D29       -0.00027   0.00011   0.00000   0.00401   0.00401   0.00374
   D30        3.14135   0.00005   0.00000   0.00158   0.00157  -3.14026
   D31       -3.12338   0.00020   0.00000   0.01001   0.01000  -3.11337
   D32        0.01824   0.00014   0.00000   0.00759   0.00757   0.02581
   D33        0.00065  -0.00012   0.00000  -0.00425  -0.00427  -0.00363
   D34       -3.14086  -0.00005   0.00000  -0.00154  -0.00156   3.14077
   D35       -3.14097  -0.00006   0.00000  -0.00182  -0.00184   3.14038
   D36        0.00071   0.00001   0.00000   0.00089   0.00088   0.00159
         Item               Value     Threshold  Converged?
 Maximum Force            0.005253     0.000450     NO 
 RMS     Force            0.001465     0.000300     NO 
 Maximum Displacement     0.049280     0.001800     NO 
 RMS     Displacement     0.014032     0.001200     NO 
 Predicted change in Energy=-2.904707D-04
 GradGradGradGradGradGradGradGradGradGradGradGradGradGradGradGradGradGrad

                          Input orientation:                          
 ---------------------------------------------------------------------
 Center     Atomic      Atomic             Coordinates (Angstroms)
 Number     Number       Type             X           Y           Z
 ---------------------------------------------------------------------
      1          6           0       -2.918974   -0.004052   -0.005402
      2          6           0       -1.412834    0.002632    0.013071
      3          6           0       -0.693422   -1.190320    0.007537
      4          6           0        0.692969   -1.190609   -0.007619
      5          6           0        1.412847    0.002050   -0.013138
      6          6           0        2.918957   -0.004122    0.006910
      7          6           0        0.694814    1.192767   -0.007725
      8          6           0       -0.694348    1.193050    0.007282
      9          1           0       -3.316192   -0.792854    0.633505
     10          1           0       -3.293855   -0.181043   -1.016051
     11          1           0       -3.321468    0.948864    0.335523
     12          1           0       -1.229786   -2.132704    0.012480
     13          1           0        1.228882   -2.133219   -0.012873
     14          1           0        3.321814    0.937538   -0.363747
     15          1           0        3.316973   -0.812948   -0.605756
     16          1           0        3.292628   -0.148069    1.023290
     17          1           0        1.230145    2.135439   -0.013088
     18          1           0       -1.229262    2.135941    0.011979
 ---------------------------------------------------------------------
                    Distance matrix (angstroms):
                    1          2          3          4          5
     1  C    0.000000
     2  C    1.506268   0.000000
     3  C    2.522000   1.393097   0.000000
     4  C    3.801849   2.420467   1.386474   0.000000
     5  C    4.331832   2.825802   2.420442   1.393086   0.000000
     6  C    5.837944   4.331801   3.802150   2.522496   1.506256
     7  C    3.806815   2.420544   2.757995   2.383377   1.390470
     8  C    2.526297   1.390451   2.383371   2.758026   2.420572
     9  H    1.090043   2.154183   2.725571   4.079537   4.838783
    10  H    1.092370   2.151992   2.971300   4.234492   4.815848
    11  H    1.089165   2.154580   3.404455   4.561886   4.840636
    12  H    2.717506   2.143167   1.084342   2.141246   3.397254
    13  H    4.662416   3.397234   2.141198   1.084317   2.143179
    14  H    6.321585   4.840758   4.559359   3.400980   2.154582
    15  H    6.316785   4.839338   4.074532   2.717682   2.154325
    16  H    6.297852   4.815041   4.243422   2.984608   2.151812
    17  H    4.668262   3.396306   3.842033   3.369153   2.141199
    18  H    2.726719   2.141193   3.369148   3.842042   3.396301
                    6          7          8          9         10
     6  C    0.000000
     7  C    2.525780   0.000000
     8  C    3.806467   1.389243   0.000000
     9  H    6.315996   4.521287   3.348139   0.000000
    10  H    6.298951   4.337460   3.113323   1.759501   0.000000
    11  H    6.321319   4.038296   2.658784   1.767033   1.761876
    12  H    4.662935   3.842297   3.368585   2.556162   3.021132
    13  H    2.718419   3.368596   3.842303   4.782477   5.027177
    14  H    1.089222   2.663273   4.041350   6.931948   6.741202
    15  H    1.089943   3.355034   4.526648   6.747967   6.653623
    16  H    1.092419   3.099914   4.327453   6.651630   6.895053
    17  H    2.725840   1.084085   2.142939   5.446299   5.180599
    18  H    4.667720   2.142903   1.084065   3.649577   3.269221
                   11         12         13         14         15
    11  H    0.000000
    12  H    3.738390   0.000000
    13  H    5.506933   2.458799   0.000000
    14  H    6.679994   5.503181   3.732697   0.000000
    15  H    6.932453   4.774620   2.540621   1.767142   0.000000
    16  H    6.739626   5.041105   3.045242   1.761609   1.759672
    17  H    4.716638   4.926354   4.268659   2.435777   3.660477
    18  H    2.427171   4.268645   4.926339   4.721190   5.453970
                   16         17         18
    16  H    0.000000
    17  H    3.246894   0.000000
    18  H    5.165940   2.459535   0.000000
 Stoichiometry    C8H10
 Framework group  C1[X(C8H10)]
 Deg. of freedom    48
 Full point group                 C1      NOp   1
 Largest Abelian subgroup         C1      NOp   1
 Largest concise Abelian subgroup C1      NOp   1
                         Standard orientation:                         
 ---------------------------------------------------------------------
 Center     Atomic      Atomic             Coordinates (Angstroms)
 Number     Number       Type             X           Y           Z
 ---------------------------------------------------------------------
      1          6           0       -2.918975   -0.003362   -0.004328
      2          6           0       -1.412827    0.003273    0.013496
      3          6           0       -0.693455   -1.189701    0.007557
      4          6           0        0.692930   -1.190032   -0.008197
      5          6           0        1.412842    0.002605   -0.013933
      6          6           0        2.918961   -0.003615    0.005465
      7          6           0        0.694849    1.193344   -0.008117
      8          6           0       -0.694307    1.193669    0.007490
      9          1           0       -3.315942   -0.792203    0.634688
     10          1           0       -3.294298   -0.180262   -1.014829
     11          1           0       -3.321293    0.949540    0.336846
     12          1           0       -1.229846   -2.132069    0.012657
     13          1           0        1.228811   -2.132658   -0.013757
     14          1           0        3.321688    0.938061   -0.365292
     15          1           0        3.316687   -0.812405   -0.607437
     16          1           0        3.293065   -0.147655    1.021672
     17          1           0        1.230207    2.136000   -0.013636
     18          1           0       -1.229189    2.136576    0.012492
 ---------------------------------------------------------------------
 Rotational constants (GHZ):           5.4456941           1.4398366           1.1550190
 Standard basis: def2TZVP (5D, 7F)
 There are   348 symmetry adapted cartesian basis functions of A   symmetry.
 There are   308 symmetry adapted basis functions of A   symmetry.
   308 basis functions,   488 primitive gaussians,   348 cartesian basis functions
    29 alpha electrons       29 beta electrons
       nuclear repulsion energy       341.1384056678 Hartrees.
 NAtoms=   18 NActive=   18 NUniq=   18 SFac= 1.00D+00 NAtFMM=   60 NAOKFM=F Big=F
 Integral buffers will be    131072 words long.
 Raffenetti 2 integral format.
 Two-electron integral symmetry is turned on.
 One-electron integrals computed using PRISM.
   1 Symmetry operations used in ECPInt.
 ECPInt:  NShTT=    8256 NPrTT=   24516 LenC2=    8049 LenP2D=   19237.
 LDataN:  DoStor=T MaxTD1= 6 Len=  172
 NBasis=   308 RedAO= T EigKep=  7.07D-06  NBF=   308
 NBsUse=   308 1.00D-06 EigRej= -1.00D+00 NBFU=   308
 Initial guess from the checkpoint file:  "/home/svss/projects/Project-Philicity/GS/hydrocarbon/set-1/GS/mol_7_hc/mol_7_hc.chk"
 B after Tr=     0.000000    0.000000    0.000000
         Rot=    1.000000   -0.000013   -0.000017   -0.000001 Ang=  -0.00 deg.
 ExpMin= 9.52D-02 ExpMax= 1.36D+04 ExpMxC= 4.63D+02 IAcc=3 IRadAn=         5 AccDes= 0.00D+00
 Harris functional with IExCor= 1009 and IRadAn=       5 diagonalized for initial guess.
 HarFok:  IExCor= 1009 AccDes= 0.00D+00 IRadAn=         5 IDoV= 1 UseB2=F ITyADJ=14
 ICtDFT=  3500011 ScaDFX=  1.000000  1.000000  1.000000  1.000000
 FoFCou: FMM=F IPFlag=           0 FMFlag=      100000 FMFlg1=           0
         NFxFlg=           0 DoJE=T BraDBF=F KetDBF=T FulRan=T
         wScrn=  0.000000 ICntrl=       500 IOpCl=  0 I1Cent=   200000004 NGrid=           0
         NMat0=    1 NMatS0=      1 NMatT0=    0 NMatD0=    1 NMtDS0=    0 NMtDT0=    0
 Petite list used in FoFCou.
 Requested convergence on RMS density matrix=1.00D-08 within 128 cycles.
 Requested convergence on MAX density matrix=1.00D-06.
 Requested convergence on             energy=1.00D-06.
 No special actions if energy rises.
 Integral accuracy reduced to 1.0D-05 until final iterations.
 Initial convergence to 1.0D-05 achieved.  Increase integral accuracy.
 SCF Done:  E(RM062X) =  -310.845186043     A.U. after   10 cycles
            NFock= 10  Conv=0.69D-08     -V/T= 2.0052
   1 Symmetry operations used in ECPInt.
 ECPInt:  NShTT=    8256 NPrTT=   24516 LenC2=    8049 LenP2D=   19237.
 LDataN:  DoStor=T MaxTD1= 7 Len=  274
 Calling FoFJK, ICntrl=      2127 FMM=F ISym2X=0 I1Cent= 0 IOpClX= 0 NMat=1 NMatS=1 NMatT=0.
 ***** Axes restored to original set *****
 -------------------------------------------------------------------
 Center     Atomic                   Forces (Hartrees/Bohr)
 Number     Number              X              Y              Z
 -------------------------------------------------------------------
      1        6           0.001361705   -0.000105102   -0.000246563
      2        6          -0.000525502    0.000170848   -0.000070865
      3        6           0.000538071    0.000025075   -0.000164010
      4        6          -0.000538897    0.000013364    0.000162697
      5        6           0.000521812    0.000189802    0.000075650
      6        6          -0.001357129   -0.000087183    0.000271449
      7        6          -0.000191351   -0.000217167    0.000156947
      8        6           0.000192334   -0.000205343   -0.000170414
      9        1          -0.000052058   -0.000058150    0.000152296
     10        1           0.000089273    0.000032556    0.000062706
     11        1          -0.000022642    0.000147227    0.000126805
     12        1           0.000175942   -0.000042131    0.000028749
     13        1          -0.000170086   -0.000040205   -0.000025758
     14        1           0.000023518    0.000141371   -0.000130653
     15        1           0.000048450   -0.000065663   -0.000161737
     16        1          -0.000087798    0.000019710   -0.000073191
     17        1          -0.000157147    0.000041312   -0.000019997
     18        1           0.000151506    0.000039678    0.000025889
 -------------------------------------------------------------------
 Cartesian Forces:  Max     0.001361705 RMS     0.000322187

 GradGradGradGradGradGradGradGradGradGradGradGradGradGradGradGradGradGrad
 Berny optimization.
 Using GEDIIS/GDIIS optimizer.
 FormGI is forming the generalized inverse of G from B-inverse, IUseBI=4.
 Internal  Forces:  Max     0.001377377 RMS     0.000286267
 Search for a local minimum.
 Step number   2 out of a maximum of   94
 All quantities printed in internal units (Hartrees-Bohrs-Radians)
 Mixed Optimization -- En-DIIS/RFO-DIIS
 Update second derivatives using D2CorX and points    1    2
 DE= -2.47D-04 DEPred=-2.90D-04 R= 8.51D-01
 TightC=F SS=  1.41D+00  RLast= 5.52D-02 DXNew= 5.0454D-01 1.6566D-01
 Trust test= 8.51D-01 RLast= 5.52D-02 DXMaxT set to 3.00D-01
 ITU=  1  0
 Use linear search instead of GDIIS.
     Eigenvalues ---    0.00778   0.00778   0.01590   0.01696   0.02236
     Eigenvalues ---    0.02267   0.02272   0.02278   0.02279   0.02286
     Eigenvalues ---    0.02296   0.07147   0.07188   0.07275   0.07280
     Eigenvalues ---    0.15587   0.16000   0.16000   0.16000   0.16000
     Eigenvalues ---    0.16000   0.16000   0.16000   0.16000   0.16207
     Eigenvalues ---    0.22000   0.22958   0.24303   0.24991   0.24992
     Eigenvalues ---    0.32472   0.34292   0.34730   0.34758   0.35024
     Eigenvalues ---    0.35070   0.35111   0.35123   0.35854   0.35856
     Eigenvalues ---    0.35856   0.36299   0.43346   0.43500   0.47445
     Eigenvalues ---    0.47547   0.47976   0.51883
 RFO step:  Lambda=-7.81643522D-06 EMin= 7.77715410D-03
 Quartic linear search produced a step of -0.12506.
 Iteration  1 RMS(Cart)=  0.00205459 RMS(Int)=  0.00000223
 Iteration  2 RMS(Cart)=  0.00000115 RMS(Int)=  0.00000212
 Iteration  3 RMS(Cart)=  0.00000000 RMS(Int)=  0.00000212
 Variable       Old X    -DE/DX   Delta X   Delta X   Delta X     New X
                                 (Linear)    (Quad)   (Total)
    R1        2.84643  -0.00138  -0.00169  -0.00185  -0.00354   2.84289
    R2        2.05988   0.00015  -0.00043   0.00084   0.00042   2.06030
    R3        2.06428  -0.00009  -0.00040   0.00021  -0.00019   2.06409
    R4        2.05822   0.00018  -0.00041   0.00090   0.00048   2.05871
    R5        2.63257  -0.00016  -0.00080   0.00059  -0.00022   2.63236
    R6        2.62757  -0.00040  -0.00064  -0.00004  -0.00068   2.62689
    R7        2.62006  -0.00106  -0.00113  -0.00065  -0.00179   2.61827
    R8        2.04911  -0.00005  -0.00075   0.00071  -0.00005   2.04906
    R9        2.63255  -0.00016  -0.00081   0.00060  -0.00021   2.63234
   R10        2.04906  -0.00005  -0.00074   0.00070  -0.00004   2.04902
   R11        2.84641  -0.00137  -0.00169  -0.00184  -0.00353   2.84288
   R12        2.62761  -0.00041  -0.00063  -0.00005  -0.00068   2.62693
   R13        2.05833   0.00018  -0.00042   0.00090   0.00048   2.05881
   R14        2.05969   0.00016  -0.00043   0.00087   0.00044   2.06013
   R15        2.06437  -0.00010  -0.00039   0.00018  -0.00021   2.06416
   R16        2.62529  -0.00085  -0.00136  -0.00004  -0.00139   2.62389
   R17        2.04862  -0.00004  -0.00070   0.00066  -0.00003   2.04859
   R18        2.04859  -0.00004  -0.00069   0.00066  -0.00003   2.04856
    A1        1.93949   0.00002  -0.00074   0.00088   0.00014   1.93963
    A2        1.93394  -0.00005  -0.00163   0.00164   0.00002   1.93396
    A3        1.94099  -0.00007  -0.00053   0.00004  -0.00048   1.94051
    A4        1.87546   0.00007   0.00086  -0.00031   0.00055   1.87602
    A5        1.89124  -0.00002   0.00122  -0.00175  -0.00053   1.89071
    A6        1.88025   0.00007   0.00095  -0.00063   0.00033   1.88057
    A7        2.10891  -0.00009  -0.00053   0.00026  -0.00027   2.10865
    A8        2.11815  -0.00022  -0.00044  -0.00029  -0.00073   2.11742
    A9        2.05587   0.00031   0.00099   0.00003   0.00102   2.05690
   A10        2.11368  -0.00016  -0.00050  -0.00002  -0.00052   2.11316
   A11        2.08147   0.00026   0.00038   0.00084   0.00122   2.08269
   A12        2.08804  -0.00010   0.00012  -0.00081  -0.00070   2.08734
   A13        2.11365  -0.00016  -0.00050  -0.00002  -0.00052   2.11313
   A14        2.08799  -0.00009   0.00010  -0.00077  -0.00066   2.08733
   A15        2.08154   0.00025   0.00040   0.00079   0.00119   2.08272
   A16        2.10963  -0.00011  -0.00052   0.00018  -0.00034   2.10929
   A17        2.05587   0.00031   0.00099   0.00004   0.00103   2.05690
   A18        2.11742  -0.00020  -0.00045  -0.00020  -0.00065   2.11676
   A19        1.94094  -0.00007  -0.00053   0.00008  -0.00045   1.94049
   A20        1.93981   0.00000  -0.00071   0.00074   0.00003   1.93984
   A21        1.93366  -0.00004  -0.00165   0.00173   0.00008   1.93374
   A22        1.89147  -0.00002   0.00123  -0.00178  -0.00056   1.89091
   A23        1.87970   0.00007   0.00093  -0.00056   0.00038   1.88008
   A24        1.87579   0.00007   0.00086  -0.00033   0.00054   1.87633
   A25        2.11365  -0.00015  -0.00049  -0.00001  -0.00050   2.11315
   A26        2.08245   0.00023   0.00053   0.00058   0.00110   2.08355
   A27        2.08709  -0.00009  -0.00004  -0.00056  -0.00060   2.08649
   A28        2.11364  -0.00015  -0.00049  -0.00001  -0.00050   2.11313
   A29        2.08249   0.00023   0.00054   0.00053   0.00107   2.08356
   A30        2.08705  -0.00008  -0.00005  -0.00052  -0.00057   2.08649
    D1        0.69755   0.00003  -0.00084   0.00044  -0.00041   0.69715
    D2       -2.46834   0.00006  -0.00001   0.00100   0.00099  -2.46735
    D3       -1.38629  -0.00004  -0.00038  -0.00083  -0.00120  -1.38750
    D4        1.73100  -0.00001   0.00045  -0.00027   0.00019   1.73119
    D5        2.80604  -0.00004  -0.00016  -0.00115  -0.00131   2.80473
    D6       -0.35985  -0.00001   0.00067  -0.00060   0.00008  -0.35977
    D7        3.11457   0.00006   0.00134   0.00108   0.00241   3.11698
    D8       -0.02411   0.00001   0.00096  -0.00010   0.00086  -0.02325
    D9       -0.00357   0.00003   0.00055   0.00054   0.00109  -0.00248
   D10        3.14094  -0.00001   0.00017  -0.00063  -0.00046   3.14048
   D11       -3.11459  -0.00006  -0.00133  -0.00118  -0.00252  -3.11710
   D12        0.02421  -0.00002  -0.00099   0.00008  -0.00091   0.02330
   D13        0.00342  -0.00004  -0.00054  -0.00064  -0.00118   0.00224
   D14       -3.14097   0.00001  -0.00020   0.00063   0.00043  -3.14054
   D15        0.00392  -0.00003  -0.00055  -0.00053  -0.00108   0.00284
   D16       -3.14028   0.00001  -0.00027   0.00068   0.00040  -3.13988
   D17       -3.14060   0.00001  -0.00017   0.00066   0.00048  -3.14012
   D18       -0.00162   0.00005   0.00011   0.00186   0.00197   0.00035
   D19        3.11334   0.00006   0.00126   0.00125   0.00251   3.11585
   D20       -0.00389   0.00003   0.00051   0.00057   0.00108  -0.00281
   D21       -0.02565   0.00002   0.00098   0.00005   0.00103  -0.02462
   D22        3.14031  -0.00001   0.00023  -0.00063  -0.00040   3.13991
   D23        2.77493  -0.00004  -0.00018  -0.00065  -0.00083   2.77410
   D24        0.66596   0.00003  -0.00089   0.00105   0.00016   0.66612
   D25       -1.41832  -0.00003  -0.00044  -0.00015  -0.00059  -1.41891
   D26       -0.39190  -0.00001   0.00061   0.00005   0.00067  -0.39123
   D27       -2.50086   0.00006  -0.00010   0.00176   0.00166  -2.49920
   D28        1.69804   0.00001   0.00035   0.00055   0.00091   1.69895
   D29        0.00374  -0.00004  -0.00050  -0.00067  -0.00117   0.00257
   D30       -3.14026   0.00001  -0.00020   0.00056   0.00037  -3.13989
   D31       -3.11337  -0.00006  -0.00125  -0.00136  -0.00261  -3.11598
   D32        0.02581  -0.00002  -0.00095  -0.00012  -0.00107   0.02474
   D33       -0.00363   0.00004   0.00053   0.00072   0.00126  -0.00237
   D34        3.14077  -0.00001   0.00019  -0.00055  -0.00035   3.14042
   D35        3.14038  -0.00000   0.00023  -0.00052  -0.00028   3.14010
   D36        0.00159  -0.00005  -0.00011  -0.00179  -0.00190  -0.00030
         Item               Value     Threshold  Converged?
 Maximum Force            0.001377     0.000450     NO 
 RMS     Force            0.000286     0.000300     YES
 Maximum Displacement     0.007236     0.001800     NO 
 RMS     Displacement     0.002055     0.001200     NO 
 Predicted change in Energy=-8.949932D-06
 GradGradGradGradGradGradGradGradGradGradGradGradGradGradGradGradGradGrad

                          Input orientation:                          
 ---------------------------------------------------------------------
 Center     Atomic      Atomic             Coordinates (Angstroms)
 Number     Number       Type             X           Y           Z
 ---------------------------------------------------------------------
      1          6           0       -2.915975   -0.003927   -0.005616
      2          6           0       -1.411695    0.002417    0.011796
      3          6           0       -0.692938   -1.190798    0.006685
      4          6           0        0.692528   -1.191063   -0.006553
      5          6           0        1.411704    0.001889   -0.011791
      6          6           0        2.915962   -0.003999    0.007076
      7          6           0        0.694431    1.192645   -0.006755
      8          6           0       -0.694013    1.192904    0.006229
      9          1           0       -3.313151   -0.792524    0.633948
     10          1           0       -3.291575   -0.180386   -1.015980
     11          1           0       -3.317639    0.949294    0.336250
     12          1           0       -1.228612   -2.133545    0.011904
     13          1           0        1.227820   -2.133999   -0.011897
     14          1           0        3.318003    0.938072   -0.364168
     15          1           0        3.313785   -0.812378   -0.606714
     16          1           0        3.290486   -0.147971    1.023017
     17          1           0        1.229171    2.135634   -0.012258
     18          1           0       -1.228401    2.136076    0.011009
 ---------------------------------------------------------------------
                    Distance matrix (angstroms):
                    1          2          3          4          5
     1  C    0.000000
     2  C    1.504394   0.000000
     3  C    2.520061   1.392982   0.000000
     4  C    3.798761   2.419191   1.385529   0.000000
     5  C    4.327687   2.823497   2.419165   1.392974   0.000000
     6  C    5.831951   4.327664   3.799033   2.520509   1.504388
     7  C    3.803527   2.419247   2.757857   2.383709   1.390110
     8  C    2.523819   1.390093   2.383703   2.757891   2.419274
     9  H    1.090264   2.152798   2.723527   4.076094   4.834493
    10  H    1.092267   2.150277   2.969797   4.232433   4.812739
    11  H    1.089420   2.152782   3.402597   4.558518   4.835844
    12  H    2.717126   2.143794   1.084318   2.139951   3.395866
    13  H    4.659215   3.395861   2.139926   1.084294   2.143788
    14  H    6.314935   4.835994   4.556014   3.399150   2.152809
    15  H    6.310691   4.834936   4.071030   2.715618   2.152877
    16  H    6.292773   4.812036   4.241236   2.982858   2.150142
    17  H    4.664762   3.394903   3.841876   3.369708   2.141538
    18  H    2.725398   2.141517   3.369693   3.841891   3.394911
                    6          7          8          9         10
     6  C    0.000000
     7  C    2.523360   0.000000
     8  C    3.803222   1.388505   0.000000
     9  H    6.310038   4.517976   3.346018   0.000000
    10  H    6.293749   4.334974   3.110975   1.759955   0.000000
    11  H    6.314658   4.034053   2.655499   1.767080   1.762209
    12  H    4.659665   3.842133   3.369138   2.555500   3.021124
    13  H    2.717919   3.369138   3.842142   4.778816   5.024910
    14  H    1.089475   2.660015   4.037128   6.925561   6.735156
    15  H    1.090174   3.352772   4.523196   6.742100   6.648135
    16  H    1.092306   3.097932   4.325279   6.646416   6.890725
    17  H    2.724640   1.084069   2.141896   5.442828   5.177698
    18  H    4.664298   2.141882   1.084050   3.648415   3.267628
                   11         12         13         14         15
    11  H    0.000000
    12  H    3.738065   0.000000
    13  H    5.503553   2.456547   0.000000
    14  H    6.672515   5.499815   3.732369   0.000000
    15  H    6.925926   4.770905   2.540027   1.767179   0.000000
    16  H    6.733718   5.038561   3.044658   1.761968   1.760115
    17  H    4.711936   4.926172   4.269633   2.433354   3.659204
    18  H    2.424696   4.269621   4.926163   4.716541   5.450359
                   16         17         18
    16  H    0.000000
    17  H    3.245870   0.000000
    18  H    5.163465   2.457682   0.000000
 Stoichiometry    C8H10
 Framework group  C1[X(C8H10)]
 Deg. of freedom    48
 Full point group                 C1      NOp   1
 Largest Abelian subgroup         C1      NOp   1
 Largest concise Abelian subgroup C1      NOp   1
                         Standard orientation:                         
 ---------------------------------------------------------------------
 Center     Atomic      Atomic             Coordinates (Angstroms)
 Number     Number       Type             X           Y           Z
 ---------------------------------------------------------------------
      1          6           0       -2.915977   -0.003140   -0.003962
      2          6           0       -1.411685    0.003164    0.012495
      3          6           0       -0.692962   -1.190069    0.006758
      4          6           0        0.692495   -1.190367   -0.007361
      5          6           0        1.411697    0.002567   -0.012886
      6          6           0        2.915967   -0.003361    0.005023
      7          6           0        0.694459    1.193341   -0.007226
      8          6           0       -0.693977    1.193634    0.006640
      9          1           0       -3.312766   -0.791817    0.635743
     10          1           0       -3.292224   -0.179446   -1.014112
     11          1           0       -3.317399    0.950043    0.338294
     12          1           0       -1.228657   -2.132803    0.012184
     13          1           0        1.227759   -2.133316   -0.013178
     14          1           0        3.317796    0.938752   -0.366343
     15          1           0        3.313379   -0.811664   -0.609134
     16          1           0        3.291133   -0.147488    1.020705
     17          1           0        1.229219    2.136317   -0.012936
     18          1           0       -1.228338    2.136818    0.011894
 ---------------------------------------------------------------------
 Rotational constants (GHZ):           5.4440661           1.4425336           1.1566823
 Standard basis: def2TZVP (5D, 7F)
 There are   348 symmetry adapted cartesian basis functions of A   symmetry.
 There are   308 symmetry adapted basis functions of A   symmetry.
   308 basis functions,   488 primitive gaussians,   348 cartesian basis functions
    29 alpha electrons       29 beta electrons
       nuclear repulsion energy       341.3073704468 Hartrees.
 NAtoms=   18 NActive=   18 NUniq=   18 SFac= 1.00D+00 NAtFMM=   60 NAOKFM=F Big=F
 Integral buffers will be    131072 words long.
 Raffenetti 2 integral format.
 Two-electron integral symmetry is turned on.
 One-electron integrals computed using PRISM.
   1 Symmetry operations used in ECPInt.
 ECPInt:  NShTT=    8256 NPrTT=   24516 LenC2=    8049 LenP2D=   19246.
 LDataN:  DoStor=T MaxTD1= 6 Len=  172
 NBasis=   308 RedAO= T EigKep=  7.06D-06  NBF=   308
 NBsUse=   308 1.00D-06 EigRej= -1.00D+00 NBFU=   308
 Initial guess from the checkpoint file:  "/home/svss/projects/Project-Philicity/GS/hydrocarbon/set-1/GS/mol_7_hc/mol_7_hc.chk"
 B after Tr=     0.000000   -0.000000   -0.000000
         Rot=    1.000000   -0.000016   -0.000013   -0.000005 Ang=  -0.00 deg.
 Requested convergence on RMS density matrix=1.00D-08 within 128 cycles.
 Requested convergence on MAX density matrix=1.00D-06.
 Requested convergence on             energy=1.00D-06.
 No special actions if energy rises.
 SCF Done:  E(RM062X) =  -310.845195798     A.U. after    8 cycles
            NFock=  8  Conv=0.47D-08     -V/T= 2.0051
   1 Symmetry operations used in ECPInt.
 ECPInt:  NShTT=    8256 NPrTT=   24516 LenC2=    8049 LenP2D=   19246.
 LDataN:  DoStor=T MaxTD1= 7 Len=  274
 Calling FoFJK, ICntrl=      2127 FMM=F ISym2X=0 I1Cent= 0 IOpClX= 0 NMat=1 NMatS=1 NMatT=0.
 ***** Axes restored to original set *****
 -------------------------------------------------------------------
 Center     Atomic                   Forces (Hartrees/Bohr)
 Number     Number              X              Y              Z
 -------------------------------------------------------------------
      1        6           0.000324196   -0.000017400   -0.000069750
      2        6          -0.000208271    0.000083480    0.000008979
      3        6           0.000119356   -0.000013493   -0.000004230
      4        6          -0.000120814   -0.000017666    0.000009008
      5        6           0.000206191    0.000096866   -0.000008467
      6        6          -0.000321811   -0.000014683    0.000076645
      7        6           0.000054508   -0.000082838   -0.000010590
      8        6          -0.000053170   -0.000077723    0.000002885
      9        1          -0.000052228    0.000011995    0.000014245
     10        1          -0.000042378    0.000006597    0.000025146
     11        1          -0.000050942    0.000002180    0.000022089
     12        1           0.000026498    0.000026327    0.000003786
     13        1          -0.000024635    0.000026913   -0.000003898
     14        1           0.000050194    0.000001940   -0.000018023
     15        1           0.000052246    0.000013357   -0.000021904
     16        1           0.000042526   -0.000001712   -0.000029052
     17        1          -0.000028889   -0.000021708   -0.000001121
     18        1           0.000027422   -0.000022430    0.000004253
 -------------------------------------------------------------------
 Cartesian Forces:  Max     0.000324196 RMS     0.000085357

 GradGradGradGradGradGradGradGradGradGradGradGradGradGradGradGradGradGrad
 Berny optimization.
 Using GEDIIS/GDIIS optimizer.
 FormGI is forming the generalized inverse of G from B-inverse, IUseBI=4.
 Internal  Forces:  Max     0.000178530 RMS     0.000041184
 Search for a local minimum.
 Step number   3 out of a maximum of   94
 All quantities printed in internal units (Hartrees-Bohrs-Radians)
 Mixed Optimization -- En-DIIS/RFO-DIIS
 Swapping is turned off.
 Update second derivatives using D2CorX and points    1    2    3
 DE= -9.76D-06 DEPred=-8.95D-06 R= 1.09D+00
 TightC=F SS=  1.41D+00  RLast= 1.00D-02 DXNew= 5.0454D-01 3.0030D-02
 Trust test= 1.09D+00 RLast= 1.00D-02 DXMaxT set to 3.00D-01
 ITU=  1  1  0
     Eigenvalues ---    0.00777   0.00778   0.01591   0.01695   0.02236
     Eigenvalues ---    0.02267   0.02273   0.02278   0.02279   0.02286
     Eigenvalues ---    0.02297   0.07066   0.07192   0.07274   0.07278
     Eigenvalues ---    0.15015   0.15996   0.16000   0.16000   0.16000
     Eigenvalues ---    0.16000   0.16000   0.16000   0.16000   0.16444
     Eigenvalues ---    0.22000   0.22959   0.24676   0.24992   0.25064
     Eigenvalues ---    0.32471   0.32790   0.34700   0.34730   0.34780
     Eigenvalues ---    0.35024   0.35070   0.35111   0.35704   0.35854
     Eigenvalues ---    0.35856   0.35856   0.43342   0.43493   0.47441
     Eigenvalues ---    0.47545   0.47602   0.51148
 En-DIIS/RFO-DIIS/Sim-DIIS IScMMF=       -3 using points:     3    2
 RFO step:  Lambda=-6.46458456D-07.
 DidBck=F Rises=F RFO-DIIS coefs:    1.07760   -0.07760
 Iteration  1 RMS(Cart)=  0.00029007 RMS(Int)=  0.00000011
 Iteration  2 RMS(Cart)=  0.00000011 RMS(Int)=  0.00000004
 Variable       Old X    -DE/DX   Delta X   Delta X   Delta X     New X
                                 (Linear)    (Quad)   (Total)
    R1        2.84289  -0.00018  -0.00027  -0.00039  -0.00066   2.84223
    R2        2.06030   0.00002   0.00003   0.00005   0.00008   2.06038
    R3        2.06409  -0.00001  -0.00002  -0.00001  -0.00002   2.06406
    R4        2.05871   0.00003   0.00004   0.00007   0.00011   2.05882
    R5        2.63236   0.00001  -0.00002   0.00006   0.00005   2.63240
    R6        2.62689  -0.00009  -0.00005  -0.00017  -0.00022   2.62667
    R7        2.61827  -0.00010  -0.00014  -0.00011  -0.00025   2.61802
    R8        2.04906  -0.00004  -0.00000  -0.00009  -0.00009   2.04897
    R9        2.63234   0.00002  -0.00002   0.00007   0.00005   2.63239
   R10        2.04902  -0.00004  -0.00000  -0.00009  -0.00009   2.04893
   R11        2.84288  -0.00018  -0.00027  -0.00038  -0.00066   2.84222
   R12        2.62693  -0.00010  -0.00005  -0.00018  -0.00023   2.62670
   R13        2.05881   0.00003   0.00004   0.00007   0.00011   2.05892
   R14        2.06013   0.00002   0.00003   0.00006   0.00009   2.06022
   R15        2.06416  -0.00001  -0.00002  -0.00002  -0.00003   2.06413
   R16        2.62389   0.00001  -0.00011   0.00012   0.00002   2.62391
   R17        2.04859  -0.00003  -0.00000  -0.00008  -0.00008   2.04851
   R18        2.04856  -0.00003  -0.00000  -0.00008  -0.00008   2.04847
    A1        1.93963   0.00005   0.00001   0.00031   0.00032   1.93995
    A2        1.93396   0.00006   0.00000   0.00048   0.00049   1.93445
    A3        1.94051   0.00004  -0.00004   0.00025   0.00021   1.94072
    A4        1.87602  -0.00004   0.00004  -0.00027  -0.00023   1.87579
    A5        1.89071  -0.00006  -0.00004  -0.00054  -0.00058   1.89013
    A6        1.88057  -0.00004   0.00003  -0.00028  -0.00026   1.88032
    A7        2.10865   0.00004  -0.00002   0.00020   0.00018   2.10883
    A8        2.11742   0.00001  -0.00006   0.00012   0.00006   2.11748
    A9        2.05690  -0.00005   0.00008  -0.00032  -0.00024   2.05665
   A10        2.11316   0.00003  -0.00004   0.00016   0.00012   2.11327
   A11        2.08269  -0.00000   0.00009  -0.00006   0.00004   2.08273
   A12        2.08734  -0.00002  -0.00005  -0.00010  -0.00015   2.08719
   A13        2.11313   0.00003  -0.00004   0.00016   0.00012   2.11325
   A14        2.08733  -0.00002  -0.00005  -0.00009  -0.00014   2.08719
   A15        2.08272  -0.00001   0.00009  -0.00007   0.00002   2.08274
   A16        2.10929   0.00003  -0.00003   0.00017   0.00014   2.10943
   A17        2.05690  -0.00005   0.00008  -0.00032  -0.00024   2.05665
   A18        2.11676   0.00002  -0.00005   0.00016   0.00010   2.11687
   A19        1.94049   0.00004  -0.00003   0.00025   0.00021   1.94071
   A20        1.93984   0.00004   0.00000   0.00028   0.00028   1.94013
   A21        1.93374   0.00006   0.00001   0.00051   0.00051   1.93425
   A22        1.89091  -0.00006  -0.00004  -0.00055  -0.00060   1.89031
   A23        1.88008  -0.00004   0.00003  -0.00026  -0.00023   1.87985
   A24        1.87633  -0.00004   0.00004  -0.00028  -0.00023   1.87610
   A25        2.11315   0.00003  -0.00004   0.00016   0.00012   2.11327
   A26        2.08355   0.00000   0.00009  -0.00003   0.00006   2.08361
   A27        2.08649  -0.00003  -0.00005  -0.00013  -0.00018   2.08631
   A28        2.11313   0.00003  -0.00004   0.00017   0.00013   2.11326
   A29        2.08356  -0.00000   0.00008  -0.00004   0.00004   2.08361
   A30        2.08649  -0.00003  -0.00004  -0.00013  -0.00017   2.08632
    D1        0.69715   0.00001  -0.00003   0.00013   0.00010   0.69725
    D2       -2.46735   0.00001   0.00008   0.00000   0.00008  -2.46727
    D3       -1.38750  -0.00000  -0.00009  -0.00005  -0.00014  -1.38764
    D4        1.73119  -0.00000   0.00001  -0.00018  -0.00016   1.73102
    D5        2.80473  -0.00001  -0.00010  -0.00018  -0.00028   2.80445
    D6       -0.35977  -0.00001   0.00001  -0.00031  -0.00030  -0.36007
    D7        3.11698  -0.00000   0.00019  -0.00021  -0.00003   3.11696
    D8       -0.02325  -0.00000   0.00007  -0.00020  -0.00013  -0.02338
[...]
 ,-0.0043696,0.1045195,0.0660158,0.0077681,-0.0098907,0.0018689,-0.1293
 269,-0.1172352,-0.0299429,-0.0039976,-0.1047037,0.065555,-0.0077687,-0
 .0095912,-0.0021113,-0.12959,-0.0211855,-0.0058072,0.0084749,-0.062651
 ,-0.0260691,0.078723,0.0700428,0.0738377,0.0162543,-0.064372,-0.002997
 ,-0.0236726,-0.0077706,0.0755582,-0.0279976,-0.0772876,-0.0267757,-0.0
 697309,-0.002027,0.0035355,0.0030697,0.0953171,-0.0753243,-0.0511929,0
 .0437186,-0.0467531,0.0562049,0.0091303,-0.0802892,0.0024362,-0.074176
 4,-0.0459137,-0.0000371,0.0070561,0.0017574,0.1224747,0.0089428,0.0804
 33,0.002513,0.0741043,-0.0459119,0.000043,0.0071363,-0.0019815,0.12259
 33,-0.0034405,-0.0037745,0.0033867,-0.0929527,-0.0718165,0.0549158,0.0
 469743,0.0503196,0.0532438,-0.0190459,0.0056593,0.007763,0.0660962,-0.
 0314346,-0.0773452,0.0684714,-0.072582,0.0207829,-0.0651842,0.0025438,
 -0.0239138,0.0063366,0.0772268,0.022967,-0.0769672,0.0218887,-0.071427
 6,0.0062845,-0.0813908,0.0027995,-0.0739686,-0.0449495,0.0000652,0.007
 0648,0.0020284,0.1242846,0.0060936,0.0815426,0.0027027,0.0739209,-0.04
 49287,0.000017,0.0069006,-0.0016857,0.124434\Polar=121.0210316,0.04721
 27,93.663708,0.7001856,-0.0069578,57.7285299\Quadrupole=2.3349534,1.42
 52752,-3.7602286,0.0053221,0.0814145,-0.0009498\PG=C01 [X(C8H10)]\NIma
 g=0\\0.49472909,-0.00447709,0.59031294,-0.00868806,-0.00053191,0.54612
 088,-0.22345407,0.00142421,0.00145850,0.66398324,-0.00157833,-0.088642
 94,-0.00002230,0.00491054,0.67585760,-0.00198957,0.00015089,-0.0700553
 7,0.00106907,-0.00007405,0.17627851,-0.02306345,0.03023448,0.00079203,
 -0.17712456,0.04308694,0.00015419,0.70805781,0.00398594,0.00374491,0.0
 0015823,0.12390369,-0.27280621,-0.00082677,0.03404454,0.71728209,-0.00
 003687,0.00099320,0.00384368,0.00054296,0.00094170,-0.07058165,-0.0042
 9476,-0.00123655,0.13742495,0.00320301,0.00205291,0.00078348,-0.027574
 18,0.09041303,0.00066129,-0.35056488,-0.03894159,0.00196156,0.70791379
 ,0.00183882,-0.00492844,-0.00055491,0.02819916,0.04329900,0.00061585,0
 .03900348,-0.13202743,-0.00064799,-0.03407456,0.71745314,0.00037506,0.
 00102027,0.00603318,0.00002984,-0.00165994,0.00741160,0.00193176,0.000
 67385,-0.06121113,-0.00427109,0.00126949,0.13742355,-0.00115746,-0.000
 36818,-0.00030541,0.00330839,-0.00063139,-0.00027723,-0.02751014,-0.02
 822226,0.00001544,-0.17730680,-0.12406360,0.00055231,0.66397176,-0.000
 93756,-0.00068537,-0.00011826,0.00074018,-0.08942604,0.00007026,-0.090
 36645,0.04331204,0.00162036,-0.04311172,-0.27275334,-0.00098953,-0.004
 54984,0.67583544,0.00023770,0.00006594,-0.00091789,-0.00025490,-0.0000
 4909,-0.00736037,0.00069007,-0.00066219,0.00741614,0.00014423,0.000854
 24,-0.07050273,0.00133435,-0.00006523,0.17629623,0.00014178,0.00001190
 ,-0.00014628,-0.00115747,0.00078877,0.00024490,0.00305722,-0.00176668,
 0.00039450,-0.02291513,-0.00391218,-0.00004953,-0.22345698,0.00136988,
 -0.00213953,0.49478613,-0.00000573,0.00034135,0.00004123,0.00030843,-0
 .00067224,-0.00004980,-0.00197746,-0.00486686,-0.00106545,-0.03015174,
 0.00367868,-0.00105308,-0.00112111,-0.08863288,-0.00013257,0.00387091,
 0.59028156,-0.00013630,-0.00006899,-0.00088913,-0.00033391,0.00012056,
 -0.00091669,0.00081593,0.00058720,0.00613308,0.00083773,-0.00017023,0.
 00393589,0.00147189,0.00003430,-0.07003482,-0.00899206,0.00019102,0.54
 610016,0.00152443,-0.00124871,0.00064840,-0.02606196,-0.09075540,0.000
 74143,-0.06189128,0.03467828,0.00114091,0.07252041,0.02925675,-0.00131
 495,-0.18062468,0.04585701,0.00010806,-0.02141990,0.02940481,0.0009624
 2,0.70229695,-0.00094870,-0.00414995,0.00065710,-0.02890827,0.04234345
 ,-0.00065800,0.03420864,-0.02228661,-0.00068728,-0.02882394,-0.0619196
 4,0.00076191,0.12807520,-0.27778719,-0.00081207,0.00330267,0.00297692,
 0.00012105,0.03137818,0.72343550,0.00040409,-0.00102677,0.00750786,0.0
 0001259,0.00161146,0.00746869,0.00114197,-0.00068952,-0.00755204,-0.00
 127890,-0.00071928,0.01056012,0.00054715,0.00096552,-0.06984360,-0.000
 08337,0.00107528,0.00488905,-0.00414772,-0.00134596,0.13793905,-0.0212
 6920,-0.02929786,0.00096031,-0.18081943,-0.04589785,0.00013835,0.07252
 112,-0.02935548,-0.00126435,-0.06196783,-0.03464414,0.00117619,-0.0261
 2871,0.09080174,0.00071066,0.00166946,0.00130123,0.00069467,-0.3428222
 8,-0.03884339,0.00179821,0.70217170,-0.00322315,0.00292100,-0.00009910
 ,-0.12824928,-0.27774943,0.00090061,0.02872820,-0.06192328,-0.00072327
 ,-0.03417884,-0.02223427,0.00070121,0.02888382,0.04233513,0.00067952,0
 .00102040,-0.00422393,-0.00067340,0.03890181,-0.13175662,-0.00062923,-
 0.03139516,0.72360976,-0.00006687,-0.00101948,0.00497933,0.00059918,-0
 .00080133,-0.06975229,-0.00124049,0.00071945,0.01055877,0.00112721,0.0
 0068304,-0.00756545,-0.00001545,-0.00159138,0.00746302,0.00041857,0.00
 108342,0.00740904,0.00180311,0.00064076,-0.06271773,-0.00414583,0.0009
 6944,0.13792688,-0.07902858,-0.06715911,0.05747249,-0.01337721,-0.0252
 5437,0.01913766,0.00177027,-0.00163498,-0.00076338,-0.00017296,-0.0001
 8409,-0.00052376,0.00004301,0.00006886,0.00023567,-0.00000136,0.000132
 42,-0.00002835,-0.00029879,-0.00105700,-0.00112518,-0.00486153,0.00178
 130,0.00045675,0.08906047,-0.06836635,-0.19009527,0.11629995,-0.000723
 17,-0.00014256,-0.00189283,0.00197587,0.00035699,-0.00042323,-0.000884
 36,-0.00001219,-0.00059001,0.00022468,0.00053280,-0.00010557,-0.000036
 90,0.00001308,0.00019615,0.00020713,-0.00020096,-0.00011116,-0.0008249
 8,0.00016675,0.00044638,0.07584566,0.20293552,0.05872904,0.11674585,-0
 .14013077,-0.00214919,-0.00276677,0.00110244,-0.00045209,0.00038288,0.
 00075882,0.00043091,0.00006465,0.00001741,-0.00000461,-0.00056040,-0.0
 0003010,0.00000164,-0.00003351,0.00004925,-0.00078116,0.00008448,-0.00
 009245,-0.00016985,-0.00019182,0.00021446,-0.06157243,-0.12815603,0.14
 903336,-0.07272012,-0.01381638,-0.08388778,-0.01479338,-0.00584162,-0.
 03050113,0.00032000,-0.00117591,0.00058756,-0.00041284,-0.00035926,0.0
 0134936,0.00002131,-0.00012475,-0.00014163,-0.00010815,0.00007603,-0.0
 0026491,-0.00064380,0.00017476,0.00155872,-0.00100184,0.00140515,0.000
 23816,0.00345089,0.00283483,0.01081804,0.08276881,-0.01326315,-0.05240
 591,-0.04037801,-0.00070461,0.00003558,0.00031750,0.00205880,-0.000283
 35,-0.00034263,-0.00142255,-0.00065751,-0.00018651,0.00011069,0.001367
 49,0.00002169,-0.00002607,-0.00002564,-0.00005972,0.00105331,-0.000667
 69,0.00050067,-0.00192549,-0.00038689,0.00047059,0.00855126,0.00454291
 ,0.02298150,0.01572410,0.05253057,-0.08061184,-0.04051485,-0.27610787,
 -0.00109044,0.00054108,0.00352815,0.00033774,-0.00056883,0.00068685,-0
 .00054253,-0.00000780,0.00016102,0.00028961,0.00011585,-0.00003412,-0.
 00004335,0.00001830,-0.00008754,-0.00028868,0.00002397,-0.00008017,0.0
 0027861,0.00056409,0.00007272,-0.00572272,-0.00377220,-0.01771787,0.09
 013345,0.04436704,0.29885775,-0.08113054,0.08316027,0.03143297,-0.0123
 9409,0.03024708,0.01022326,-0.00622892,-0.00177496,0.00036164,0.000011
 50,0.00158969,-0.00061187,0.00010521,-0.00033500,0.00013717,0.00001512
 ,-0.00009657,-0.00003174,-0.00026175,0.00006332,-0.00021972,0.00204109
 ,0.00205241,-0.00048862,0.00385018,-0.01018701,-0.00521776,0.00350523,
 -0.01009232,-0.00244053,0.09108400,0.08659973,-0.25829161,-0.07545335,
 -0.00054781,0.00052870,0.00143258,0.00029486,0.00043205,-0.00046834,-0
 .00029604,-0.00005183,-0.00005451,-0.00010417,0.00030328,0.00005591,0.
 00000352,0.00003094,-0.00011007,0.00047986,0.00019466,0.00045252,-0.00
 202444,0.00060041,0.00035705,0.00804516,-0.01858119,-0.00833396,0.0009
 2702,-0.00377883,-0.00089363,-0.09348819,0.27790810,0.03299095,-0.0758
 3535,-0.07357692,-0.00192904,0.00218011,-0.00093734,-0.00004804,0.0000
 2791,0.00096596,-0.00072152,-0.00011718,0.00026328,0.00005705,0.000496
 06,-0.00000163,-0.00001691,0.00000264,0.00004904,0.00029616,-0.0000919
 8,-0.00015545,-0.00034376,-0.00022974,0.00029610,-0.00836882,0.0173126
 0,0.00693175,0.01139930,-0.02729232,-0.00880962,-0.03357645,0.08345269
 ,0.07515890,0.00119748,0.00069053,-0.00024391,0.01045460,0.01360653,0.
 00009190,-0.12656540,-0.11925569,0.00109125,-0.01051691,-0.02914387,-0
 .00004453,-0.00544988,0.00134089,0.00000037,-0.00014981,-0.00141030,0.
 00015528,-0.00088630,0.00090602,0.00001278,-0.00083323,0.00349221,0.00
 007690,0.00009289,-0.00011966,0.00035019,0.00007416,-0.00000957,-0.000
 18748,-0.00001867,-0.00018237,-0.00002685,0.13156192,-0.00141035,0.001
 07170,0.00041937,-0.01614808,-0.01941999,0.00017727,-0.11908027,-0.270
 23251,0.00116852,0.00192371,0.00334213,-0.00004359,0.00055980,0.002059
 26,0.00005289,0.00013909,-0.00000358,-0.00000269,0.00108229,0.00020574
 ,-0.00002055,0.00394510,-0.00344164,0.00003145,0.00093238,0.00009562,-
 0.00033480,0.00042214,-0.00021066,0.00004751,0.00001737,0.00036050,-0.
 00013133,0.12899751,0.28659453,-0.00045714,-0.00076006,-0.00297382,0.0
 0056397,-0.00001904,0.00404754,0.00100606,0.00137558,-0.03743576,-0.00
 000737,0.00014937,0.00275720,0.00029407,0.00016191,0.00798445,-0.00012
 261,0.00008725,0.00008625,0.00011627,-0.00005139,-0.00054820,-0.000072
 03,-0.00019665,0.00640966,0.00042282,0.00056791,-0.00012962,-0.0006497
 9,0.00006541,-0.00037897,0.00018885,0.00001362,-0.00015785,-0.00113885
 ,-0.00132698,0.02558205,-0.00014810,0.00141850,0.00015010,-0.00544867,
 -0.00133822,0.00000657,-0.01051119,0.02913755,-0.00004782,-0.12646463,
 0.11926041,0.00111169,0.01039048,-0.01359339,0.00009500,0.00121841,-0.
 00072955,-0.00025582,-0.00082855,-0.00349531,0.00007931,-0.00089031,-0
 .00090621,0.00001149,0.00001673,-0.00003897,0.00003264,-0.00006361,-0.
 00000624,-0.00004543,-0.00048475,0.00004497,-0.00002731,0.00096551,-0.
 00040225,-0.00004061,0.13151968,-0.00013778,-0.00000245,0.00000203,-0.
 00055949,0.00206037,-0.00005369,-0.00191579,0.00333516,0.00004621,0.11
 904183,-0.27036087,-0.00120189,0.01612373,-0.01942427,-0.00018395,0.00
 143721,0.00104689,-0.00043872,-0.00394319,-0.00344452,-0.00003211,-0.0
 0108574,0.00020506,0.00001934,0.00002612,-0.00000325,0.00000302,0.0000
 4835,-0.00001797,0.00000131,0.00001763,-0.00000092,0.00000502,0.000402
 53,0.00074192,0.00001414,-0.12896721,0.28671463,-0.00011717,-0.0000849
 0,0.00008958,0.00028721,-0.00015523,0.00799629,-0.00000569,-0.00015503
 ,0.00274488,0.00101708,-0.00142735,-0.03742696,0.00059671,0.00002825,0
 .00405674,-0.00047602,0.00079652,-0.00305358,-0.00007339,0.00020265,0.
 00639351,0.00011473,0.00005129,-0.00054754,0.00001208,0.00005243,-0.00
 002899,-0.00003081,0.00002635,0.00000657,-0.00002873,0.00000188,-0.000
 11400,-0.00004016,-0.00001302,-0.00414173,-0.00115907,0.00136257,0.025
 59519,0.00001595,0.00009059,-0.00003259,0.00010013,0.00032006,0.000145
 68,-0.00001322,-0.00155269,-0.00066028,-0.00613326,0.00178024,0.000383
 40,-0.01249279,-0.02991048,0.01109946,-0.08111578,-0.08222082,0.034144
 45,0.00202953,-0.00202081,-0.00052449,-0.00025454,-0.00007276,-0.00024
 501,0.00001143,-0.00000931,0.00000793,-0.00003679,-0.00000671,0.000012
 16,-0.00003686,0.00002359,0.00000769,-0.00048037,-0.00001821,-0.000031
 27,-0.00001857,-0.00001934,0.00020524,0.09107973,-0.00000519,0.0000311
 2,0.00012328,0.00011454,0.00031023,-0.00006299,0.00027793,-0.00005906,
 0.00004899,-0.00032926,0.00041487,0.00049018,0.00044227,0.00046707,-0.
 00152399,-0.08547503,-0.25327107,0.08103997,0.00201403,0.00058426,-0.0
 0037578,-0.00050622,0.00018435,-0.00048283,-0.00001673,-0.00000115,0.0
 0000293,0.00002515,-0.00000540,-0.00000977,-0.00002279,0.00000566,-0.0
 0000085,-0.00004577,-0.00000143,-0.00000091,0.00017860,0.00036776,-0.0
 0000584,0.09245365,0.27236811,-0.00001793,0.00000208,0.00004966,0.0000
 5784,-0.00052403,-0.00000407,-0.00075710,0.00012027,0.00023106,-0.0000
 6156,-0.00003694,0.00090310,-0.00203744,-0.00231969,-0.00077086,0.0357
 6904,0.08146066,-0.07841128,-0.00036517,0.00024440,0.00033568,0.000315
 50,0.00009436,-0.00014256,0.00000861,0.00000455,-0.00001422,0.00003099
 ,0.00000389,0.00000091,0.00000712,0.00000029,-0.00000331,-0.00002899,-
 0.00000545,-0.00010713,-0.00002878,0.00013611,-0.00013548,-0.03648416,
 -0.08961203,0.08054740,-0.00000328,-0.00013851,-0.00002252,0.00005016,
 -0.00009108,0.00022613,-0.00017954,0.00017237,-0.00048760,0.00180633,0
 .00167741,-0.00074751,-0.01327224,0.02585890,0.01836323,-0.07929581,0.
 06894844,0.05524708,-0.00501782,-0.00178304,0.00046109,-0.00026424,0.0
 0111486,-0.00108756,-0.00004916,-0.00002058,0.00001552,-0.00006774,0.0
 0002944,0.00001169,0.00001394,0.00001493,0.00000693,0.00001858,-0.0000
 2475,0.00001021,0.00007800,-0.00095552,0.00040782,0.00386392,-0.008314
 97,-0.00812065,0.08931828,0.00003472,0.00001390,-0.00018696,-0.0002154
 8,0.00050133,0.00009992,0.00083817,0.00001480,0.00059501,-0.00197522,0
 .00038286,0.00043165,0.00061583,-0.00010912,0.00189357,0.07036929,-0.1
 9751005,-0.11431444,0.00076892,0.00019932,-0.00047225,-0.00020312,-0.0
 0018157,0.00008610,0.00002179,-0.00000449,0.00000952,-0.00005202,0.000
 00256,0.00000595,0.00000785,-0.00000189,-0.00000553,0.00004020,-0.0000
 0265,-0.00005264,0.00012260,0.00012256,-0.00056651,0.01004384,-0.01882
 174,-0.01647844,-0.07784039,0.21107630,0.00000080,0.00003824,0.0000493
 3,0.00000461,0.00056622,-0.00002730,0.00042162,-0.00007118,-0.00000105
 ,-0.00045160,-0.00037211,0.00071788,-0.00221777,0.00279344,0.00090633,
 0.05662589,-0.11476585,-0.13273306,-0.00015919,0.00017121,0.00028064,-
 0.00080433,-0.00009052,-0.00006265,0.00001673,-0.00001041,-0.00000811,
 0.00003335,-0.00001220,0.00000199,0.00000719,-0.00000412,-0.00001344,0
 .00003135,-0.00000306,-0.00003043,0.00034871,0.00033224,-0.00010157,-0
 .00554153,0.00914854,0.00716882,-0.05917452,0.12601787,0.14087201,-0.0
 0010731,-0.00008886,-0.00026025,0.00001886,0.00011492,-0.00014452,-0.0
 0043714,0.00035399,0.00137191,0.00021833,0.00118262,0.00056256,-0.0147
 9476,0.00478149,-0.03068464,-0.07251803,0.01121613,-0.08416708,-0.0008
 6070,-0.00137601,0.00027790,-0.00062763,-0.00020435,0.00155563,-0.0000
 6963,0.00005687,0.00003212,-0.00012280,-0.00000121,-0.00000541,-0.0000
 3624,-0.00001977,0.00002991,-0.00007115,-0.00004871,-0.00002933,0.0000
 6432,-0.00040160,-0.00065505,0.00349893,-0.00056669,0.01142461,0.00344
 494,-0.00250340,0.01092974,0.08255449,0.00002623,-0.00002605,0.0000533
 9,-0.00009494,0.00138325,-0.00002009,0.00140293,-0.00067016,0.00022813
 ,-0.00205468,-0.00030541,0.00037527,0.00059584,0.00005711,-0.00023989,
 0.01074662,-0.04997679,0.03312162,0.00195085,-0.00038937,-0.00047951,-
 0.00109994,-0.00067511,-0.00048963,-0.00002752,0.00000106,0.00001111,0
 .00000199,-0.00001574,-0.00000833,0.00000945,-0.00000447,-0.00000473,0
 .00000353,-0.00001858,-0.00003084,0.00000063,-0.00019963,-0.00010824,0
 .00996720,-0.00290250,0.02715662,-0.00871497,0.00392009,-0.02363701,-0
 .01278019,0.04987086,-0.00004487,-0.00001583,-0.00008823,0.00029639,-0
 .00009728,-0.00003495,-0.00053448,0.00001128,0.00014553,0.00033148,0.0
 0057187,0.00063348,-0.00118774,-0.00043473,0.00352687,-0.08078803,0.03
 322680,-0.27867146,0.00028367,-0.00057019,0.00012963,-0.00032629,-0.00
 002337,-0.00005463,0.00001417,-0.00000605,0.00000179,-0.00000477,0.000
 00863,0.00001741,0.00001090,0.00000960,0.00000027,-0.00004475,-0.00000
 127,0.00000855,-0.00017512,-0.00002825,-0.00036533,-0.00275136,0.00073
 235,-0.00973147,-0.00542051,0.00309863,-0.01703853,0.09043951,-0.03639
 762,0.30166737,-0.00016242,-0.00131669,0.00015200,-0.00544564,0.001278
 86,-0.00000506,-0.00089039,0.00091802,0.00001072,-0.00075028,0.0035110
 0,0.00007817,0.00979882,0.01338746,0.00007412,0.00141131,0.00113029,-0
 .00027356,-0.12635849,-0.11987447,0.00113155,-0.01040116,-0.02902803,-
 0.00003173,-0.00041609,-0.00005253,-0.00002658,-0.00016273,-0.00002410
 ,-0.00003149,0.00002801,0.00004935,0.00001748,0.00003505,-0.00011274,-
 0.00000452,0.00057152,0.00077555,-0.00005024,-0.00004460,-0.00017487,0
 .00026885,-0.00002062,-0.00012628,-0.00004315,-0.00000138,0.00004555,-
 0.00006480,0.13186925,0.00015790,-0.00001257,0.00000244,0.00056839,0.0
 0211220,0.00005075,0.00110692,0.00017153,-0.00002283,0.00392310,-0.003
 49090,0.00003171,-0.01600326,-0.01956421,0.00019705,-0.00168668,0.0008
 2529,0.00042789,-0.11919161,-0.27069530,0.00125281,0.00190142,0.003364
 04,-0.00004790,-0.00002557,-0.00001012,-0.00000779,-0.00004376,-0.0000
 2347,0.00000019,-0.00001326,0.00000150,-0.00000324,-0.00011327,-0.0000
 2574,-0.00000486,-0.00079911,-0.00111458,-0.00000938,0.00113791,0.0003
 2762,-0.00025002,0.00004305,0.00040712,-0.00010897,0.00024026,-0.00002
 523,-0.00008473,0.12920540,0.28703048,-0.00011673,0.00007038,0.0001113
 1,0.00028412,0.00015608,0.00754583,0.00010620,-0.00004732,-0.00052984,
 -0.00006791,-0.00020136,0.00641763,0.00059573,-0.00004823,0.00428729,-
 0.00047487,-0.00080990,-0.00396664,0.00103587,0.00146832,-0.03725179,-
 0.00000746,0.00016379,0.00274932,-0.00005397,0.00002496,-0.00003273,0.
 00001215,-0.00006200,0.00002453,-0.00000349,-0.00003915,-0.00004557,-0
 .00000506,-0.00000540,-0.00117251,-0.00005077,0.00001063,0.00020017,0.
 00026783,0.00044721,0.00012771,0.00036447,-0.00013974,0.00005885,-0.00
 068574,0.00040998,-0.00016926,-0.00116486,-0.00140892,0.02561378,0.001
 43280,-0.00117200,-0.00026348,0.00973528,-0.01337846,0.00007708,-0.000
 74631,-0.00351413,0.00007664,-0.00089368,-0.00091786,0.00001292,-0.005
 44455,-0.00127723,-0.00000939,-0.00016099,0.00132460,0.00015428,-0.010
 39504,0.02902215,-0.00004598,-0.12626142,0.11987762,0.00103458,-0.0000
 2056,0.00011875,-0.00004435,-0.00000661,-0.00004558,-0.00005338,-0.000
 06246,0.00017981,0.00025323,0.00057153,-0.00077402,-0.00004871,0.00003
 373,0.00011269,-0.00000453,0.00002715,-0.00004864,0.00001921,-0.000423
 71,0.00005269,-0.00002790,-0.00015309,0.00002142,-0.00003341,0.0009398
 5,-0.00040785,-0.00003550,0.13182808,0.00171002,0.00080362,-0.00041221
 ,0.01598196,-0.01957231,-0.00017740,-0.00392176,-0.00349410,-0.0000245
 6,-0.00111009,0.00017115,0.00002353,-0.00056804,0.00211280,-0.00004626
 ,-0.00015671,-0.00001165,-0.00000149,-0.00189434,0.00335802,0.00004386
 ,0.11915431,-0.27081376,-0.00107448,-0.00004557,0.00040644,0.00009915,
 -0.00022581,-0.00000005,0.00009013,-0.00115496,0.00034494,0.00023523,0
 .00080054,-0.00111461,0.00000817,0.00011321,-0.00002589,0.00000356,0.0
 0001405,0.00000129,0.00000338,0.00002441,-0.00000932,0.00000767,0.0000
 4452,-0.00002332,0.00000016,0.00040824,0.00072233,0.00001064,-0.129173
 97,0.28714442,-0.00045429,0.00077131,-0.00404483,0.00055120,0.00005185
 ,0.00429096,-0.00006491,0.00020074,0.00640175,0.00010751,0.00004664,-0
 .00052906,0.00029136,-0.00015852,0.00755908,-0.00012198,-0.00007297,0.
 00011245,-0.00000604,-0.00015899,0.00273721,0.00094666,-0.00126720,-0.
 03723641,0.00038164,0.00016256,0.00007560,-0.00068027,-0.00042987,-0.0
 0014173,0.00024983,-0.00041900,0.00014984,-0.00004943,-0.00000888,0.00
 020033,-0.00000480,0.00000601,-0.00116777,-0.00000316,0.00004157,-0.00
 004396,-0.00005330,-0.00002172,-0.00003970,0.00000815,0.00005977,0.000
 02295,-0.00003688,-0.00001420,-0.00396809,-0.00106129,0.00121092,0.025
 62138\\-0.00032423,0.00001738,0.00006975,0.00020830,-0.00008371,-0.000
 00899,-0.00011936,0.00001354,0.00000422,0.00012078,0.00001768,-0.00000
 899,-0.00020619,-0.00009709,0.00000847,0.00032185,0.00001466,-0.000076
 64,-0.00005458,0.00008287,0.00001059,0.00005320,0.00007773,-0.00000288
 ,0.00005224,-0.00001197,-0.00001426,0.00004238,-0.00000659,-0.00002513
 ,0.00005094,-0.00000216,-0.00002208,-0.00002647,-0.00002626,-0.0000037
 9,0.00002462,-0.00002685,0.00000390,-0.00005019,-0.00000191,0.00001801
 ,-0.00005226,-0.00001334,0.00002191,-0.00004253,0.00000172,0.00002905,
 0.00002893,0.00002180,0.00000112,-0.00002745,0.00002251,-0.00000425\\\
 @
 The archive entry for this job was punched.


 WE STILL HAVE JUDGEMENT HERE,
 THAT WE TEACH BUT BLOODY INSTRUCTIONS,
 WHICH, BEING TAUGHT,
 RETURN TO PLAGUE THE INVENTOR.
           MACBETH ACT I, SCENE VII
 Job cpu time:       0 days  1 hours 10 minutes 33.8 seconds.
 Elapsed time:       0 days  0 hours  8 minutes 54.8 seconds.
 File lengths (MBytes):  RWF=    200 Int=      0 D2E=      0 Chk=      9 Scr=      2
 Normal termination of Gaussian 16 at Mon Jun 20 16:48:04 2022.
