 Entering Gaussian System, Link 0=/opt/apps/Gaussian/G16C/g16/g16
 Input=/home/svss/projects/Project-Philicity/GS/hydrocarbon/set-1/GS/mol_32_hc/mol_32_hc.com
 Output=/home/svss/projects/Project-Philicity/GS/hydrocarbon/set-1/GS/mol_32_hc/mol_32_hc.log
 Initial command:
 /opt/apps/Gaussian/G16C/g16/l1.exe "/home/svss/projects/Project-Philicity/GS/hydrocarbon/set-1/Gau-293699.inp" -scrdir="/home/svss/projects/Project-Philicity/GS/hydrocarbon/set-1/"
 Entering Link 1 = /opt/apps/Gaussian/G16C/g16/l1.exe PID=    293700.
  
 Copyright (c) 1988-2019, Gaussian, Inc.  All Rights Reserved.
  
 This is part of the Gaussian(R) 16 program.  It is based on
 the Gaussian(R) 09 system (copyright 2009, Gaussian, Inc.),
 the Gaussian(R) 03 system (copyright 2003, Gaussian, Inc.),
 the Gaussian(R) 98 system (copyright 1998, Gaussian, Inc.),
 the Gaussian(R) 94 system (copyright 1995, Gaussian, Inc.),
 the Gaussian 92(TM) system (copyright 1992, Gaussian, Inc.),
 the Gaussian 90(TM) system (copyright 1990, Gaussian, Inc.),
 the Gaussian 88(TM) system (copyright 1988, Gaussian, Inc.),
 the Gaussian 86(TM) system (copyright 1986, Carnegie Mellon
 University), and the Gaussian 82(TM) system (copyright 1983,
 Carnegie Mellon University). Gaussian is a federally registered
 trademark of Gaussian, Inc.
  
 This software contains proprietary and confidential information,
 including trade secrets, belonging to Gaussian, Inc.
  
 This software is provided under written license and may be
 used, copied, transmitted, or stored only in accord with that
 written license.
  
 The following legend is applicable only to US Government
 contracts under FAR:
  
                    RESTRICTED RIGHTS LEGEND
  
 Use, reproduction and disclosure by the US Government is
 subject to restrictions as set forth in subparagraphs (a)
 and (c) of the Commercial Computer Software - Restricted
 Rights clause in FAR 52.227-19.
  
 Gaussian, Inc.
 340 Quinnipiac St., Bldg. 40, Wallingford CT 06492
  
  
 ---------------------------------------------------------------
 Warning -- This program may not be used in any manner that
 competes with the business of Gaussian, Inc. or will provide
 assistance to any competitor of Gaussian, Inc.  The licensee
 of this program is prohibited from giving any competitor of
 Gaussian, Inc. access to this program.  By using this program,
 the user acknowledges that Gaussian, Inc. is engaged in the
 business of creating and licensing software in the field of
 computational chemistry and represents and warrants to the
 licensee that it is not a competitor of Gaussian, Inc. and that
 it will not use this program in any manner prohibited above.
 ---------------------------------------------------------------
  

 Cite this work as:
 Gaussian 16, Revision C.01,
 M. J. Frisch, G. W. Trucks, H. B. Schlegel, G. E. Scuseria, 
 M. A. Robb, J. R. Cheeseman, G. Scalmani, V. Barone, 
 G. A. Petersson, H. Nakatsuji, X. Li, M. Caricato, A. V. Marenich, 
 J. Bloino, B. G. Janesko, R. Gomperts, B. Mennucci, H. P. Hratchian, 
 J. V. Ortiz, A. F. Izmaylov, J. L. Sonnenberg, D. Williams-Young, 
 F. Ding, F. Lipparini, F. Egidi, J. Goings, B. Peng, A. Petrone, 
 T. Henderson, D. Ranasinghe, V. G. Zakrzewski, J. Gao, N. Rega, 
 G. Zheng, W. Liang, M. Hada, M. Ehara, K. Toyota, R. Fukuda, 
 J. Hasegawa, M. Ishida, T. Nakajima, Y. Honda, O. Kitao, H. Nakai, 
 T. Vreven, K. Throssell, J. A. Montgomery, Jr., J. E. Peralta, 
 F. Ogliaro, M. J. Bearpark, J. J. Heyd, E. N. Brothers, K. N. Kudin, 
 V. N. Staroverov, T. A. Keith, R. Kobayashi, J. Normand, 
 K. Raghavachari, A. P. Rendell, J. C. Burant, S. S. Iyengar, 
 J. Tomasi, M. Cossi, J. M. Millam, M. Klene, C. Adamo, R. Cammi, 
 J. W. Ochterski, R. L. Martin, K. Morokuma, O. Farkas, 
 J. B. Foresman, and D. J. Fox, Gaussian, Inc., Wallingford CT, 2019.
 
 ******************************************
 Gaussian 16:  AS64L-G16RevC.01  3-Jul-2019
                20-Jun-2022 
 ******************************************
 %nproc=8
 Will use up to    8 processors via shared memory.
 %mem=96GB
 %chk=/home/svss/projects/Project-Philicity/GS/hydrocarbon/set-1/GS/mol_32_hc/mol
 _32_hc.chk
 -------------------------
 # opt freq M062X/def2tzvp
 -------------------------
 1/18=20,19=15,26=3,38=1/1,3;
 2/9=110,12=2,17=6,18=5,40=1/2;
 3/5=44,7=101,11=2,25=1,30=1,71=1,74=-55/1,2,3;
 4//1;
 5/5=2,38=5/2;
 6/7=2,8=2,9=2,10=2,28=1/1;
 7//1,2,3,16;
 1/18=20,19=15,26=3/3(2);
 2/9=110/2;
 99//99;
 2/9=110/2;
 3/5=44,7=101,11=2,25=1,30=1,71=1,74=-55/1,2,3;
 4/5=5,16=3,69=1/1;
 5/5=2,38=5/2;
 7//1,2,3,16;
 1/18=20,19=15,26=3/3(-5);
 2/9=110/2;
 6/7=2,8=2,9=2,10=2,19=2,28=1/1;
 99/9=1/99;
 ----------------------------------------------------------------------
 converted from /home/svss/projects/Project-Philicity/GS/hydrocarbon/se
 t-1/GS/mol_32_hc/mol_32_hc_cregen_best.xyz
 ----------------------------------------------------------------------
 Symbolic Z-matrix:
 Charge =  0 Multiplicity = 1
 C                    -2.37921  -0.00029  -0.93006 
 C                    -1.18573  -0.0001    0.02341 
 C                    -1.64635   0.0004    1.48372 
 O                    -0.44558   1.17493  -0.26841 
 C                     0.87188   1.25041  -0.0189 
 O                     1.47883   2.24645  -0.27455 
 C                     1.49882   0.00008   0.56622 
 C                     0.87202  -1.25036  -0.01867 
 O                     1.47909  -2.24625  -0.2746 
 O                    -0.44559  -1.1753   -0.26768 
 H                    -2.97635   0.89     -0.76307 
 H                    -2.9771   -0.88985  -0.76197 
 H                    -2.01907  -0.00108  -1.95482 
 H                    -2.24542   0.88785   1.6656 
 H                    -2.24678  -0.88606   1.66578 
 H                    -0.80607  -0.00021   2.17254 
 H                     2.57294   0.00009   0.37703 
 H                     1.34942   0.00025   1.64915 
 

 GradGradGradGradGradGradGradGradGradGradGradGradGradGradGradGradGradGrad
 Berny optimization.
 Initialization pass.
                           ----------------------------
                           !    Initial Parameters    !
                           ! (Angstroms and Degrees)  !
 --------------------------                            --------------------------
 ! Name  Definition              Value          Derivative Info.                !
 --------------------------------------------------------------------------------
 ! R1    R(1,2)                  1.5276         estimate D2E/DX2                !
 ! R2    R(1,11)                 1.0849         estimate D2E/DX2                !
 ! R3    R(1,12)                 1.0849         estimate D2E/DX2                !
 ! R4    R(1,13)                 1.0862         estimate D2E/DX2                !
 ! R5    R(2,3)                  1.5312         estimate D2E/DX2                !
 ! R6    R(2,4)                  1.419          estimate D2E/DX2                !
 ! R7    R(2,10)                 1.419          estimate D2E/DX2                !
 ! R8    R(3,14)                 1.0861         estimate D2E/DX2                !
 ! R9    R(3,15)                 1.086          estimate D2E/DX2                !
 ! R10   R(3,16)                 1.0865         estimate D2E/DX2                !
 ! R11   R(4,5)                  1.343          estimate D2E/DX2                !
 ! R12   R(5,6)                  1.1941         estimate D2E/DX2                !
 ! R13   R(5,7)                  1.5162         estimate D2E/DX2                !
 ! R14   R(7,8)                  1.5161         estimate D2E/DX2                !
 ! R15   R(7,17)                 1.0907         estimate D2E/DX2                !
 ! R16   R(7,18)                 1.0932         estimate D2E/DX2                !
 ! R17   R(8,9)                  1.1941         estimate D2E/DX2                !
 ! R18   R(8,10)                 1.343          estimate D2E/DX2                !
 ! A1    A(2,1,11)             109.5022         estimate D2E/DX2                !
 ! A2    A(2,1,12)             109.5093         estimate D2E/DX2                !
 ! A3    A(2,1,13)             109.2579         estimate D2E/DX2                !
 ! A4    A(11,1,12)            110.2226         estimate D2E/DX2                !
 ! A5    A(11,1,13)            109.1654         estimate D2E/DX2                !
 ! A6    A(12,1,13)            109.1652         estimate D2E/DX2                !
 ! A7    A(1,2,3)              111.1147         estimate D2E/DX2                !
 ! A8    A(1,2,4)              106.2156         estimate D2E/DX2                !
 ! A9    A(1,2,10)             106.2223         estimate D2E/DX2                !
 ! A10   A(3,2,4)              110.6557         estimate D2E/DX2                !
 ! A11   A(3,2,10)             110.6589         estimate D2E/DX2                !
 ! A12   A(4,2,10)             111.81           estimate D2E/DX2                !
 ! A13   A(2,3,14)             109.0205         estimate D2E/DX2                !
 ! A14   A(2,3,15)             109.0211         estimate D2E/DX2                !
 ! A15   A(2,3,16)             111.8366         estimate D2E/DX2                !
 ! A16   A(14,3,15)            109.5077         estimate D2E/DX2                !
 ! A17   A(14,3,16)            108.7159         estimate D2E/DX2                !
 ! A18   A(15,3,16)            108.7131         estimate D2E/DX2                !
 ! A19   A(2,4,5)              121.3321         estimate D2E/DX2                !
 ! A20   A(4,5,6)              120.3801         estimate D2E/DX2                !
 ! A21   A(4,5,7)              115.5305         estimate D2E/DX2                !
 ! A22   A(6,5,7)              124.0789         estimate D2E/DX2                !
 ! A23   A(5,7,8)              111.1202         estimate D2E/DX2                !
 ! A24   A(5,7,17)             109.8942         estimate D2E/DX2                !
 ! A25   A(5,7,18)             109.0056         estimate D2E/DX2                !
 ! A26   A(8,7,17)             109.892          estimate D2E/DX2                !
 ! A27   A(8,7,18)             109.0136         estimate D2E/DX2                !
 ! A28   A(17,7,18)            107.8442         estimate D2E/DX2                !
 ! A29   A(7,8,9)              124.0819         estimate D2E/DX2                !
 ! A30   A(7,8,10)             115.5332         estimate D2E/DX2                !
 ! A31   A(9,8,10)             120.3744         estimate D2E/DX2                !
 ! A32   A(2,10,8)             121.3297         estimate D2E/DX2                !
 ! D1    D(11,1,2,3)            60.5092         estimate D2E/DX2                !
 ! D2    D(11,1,2,4)           -59.8959         estimate D2E/DX2                !
 ! D3    D(11,1,2,10)         -179.0777         estimate D2E/DX2                !
 ! D4    D(12,1,2,3)           -60.4564         estimate D2E/DX2                !
 ! D5    D(12,1,2,4)           179.1385         estimate D2E/DX2                !
 ! D6    D(12,1,2,10)           59.9567         estimate D2E/DX2                !
 ! D7    D(13,1,2,3)          -179.9757         estimate D2E/DX2                !
 ! D8    D(13,1,2,4)            59.6192         estimate D2E/DX2                !
 ! D9    D(13,1,2,10)          -59.5626         estimate D2E/DX2                !
 ! D10   D(1,2,3,14)           -59.7923         estimate D2E/DX2                !
 ! D11   D(1,2,3,15)            59.7102         estimate D2E/DX2                !
 ! D12   D(1,2,3,16)           179.9574         estimate D2E/DX2                !
 ! D13   D(4,2,3,14)            57.9499         estimate D2E/DX2                !
 ! D14   D(4,2,3,15)           177.4524         estimate D2E/DX2                !
 ! D15   D(4,2,3,16)           -62.3004         estimate D2E/DX2                !
 ! D16   D(10,2,3,14)         -177.5448         estimate D2E/DX2                !
 ! D17   D(10,2,3,15)          -58.0423         estimate D2E/DX2                !
 ! D18   D(10,2,3,16)           62.2049         estimate D2E/DX2                !
 ! D19   D(1,2,4,5)           -154.0013         estimate D2E/DX2                !
 ! D20   D(3,2,4,5)             85.2969         estimate D2E/DX2                !
 ! D21   D(10,2,4,5)           -38.5496         estimate D2E/DX2                !
 ! D22   D(1,2,10,8)           153.966          estimate D2E/DX2                !
 ! D23   D(3,2,10,8)           -85.3263         estimate D2E/DX2                !
 ! D24   D(4,2,10,8)            38.5184         estimate D2E/DX2                !
 ! D25   D(2,4,5,6)            179.798          estimate D2E/DX2                !
 ! D26   D(2,4,5,7)              0.9292         estimate D2E/DX2                !
 ! D27   D(4,5,7,8)             36.2418         estimate D2E/DX2                !
 ! D28   D(4,5,7,17)           158.0908         estimate D2E/DX2                !
 ! D29   D(4,5,7,18)           -83.9195         estimate D2E/DX2                !
 ! D30   D(6,5,7,8)           -142.58           estimate D2E/DX2                !
 ! D31   D(6,5,7,17)           -20.731          estimate D2E/DX2                !
 ! D32   D(6,5,7,18)            97.2586         estimate D2E/DX2                !
 ! D33   D(5,7,8,9)            142.5532         estimate D2E/DX2                !
 ! D34   D(5,7,8,10)           -36.2695         estimate D2E/DX2                !
 ! D35   D(17,7,8,9)            20.7029         estimate D2E/DX2                !
 ! D36   D(17,7,8,10)         -158.1198         estimate D2E/DX2                !
 ! D37   D(18,7,8,9)           -97.2902         estimate D2E/DX2                !
 ! D38   D(18,7,8,10)           83.8871         estimate D2E/DX2                !
 ! D39   D(7,8,10,2)            -0.8746         estimate D2E/DX2                !
 ! D40   D(9,8,10,2)          -179.7444         estimate D2E/DX2                !
 --------------------------------------------------------------------------------
 Trust Radius=3.00D-01 FncErr=1.00D-07 GrdErr=1.00D-06 EigMax=2.50D+02 EigMin=1.00D-04
 Number of steps in this run=    100 maximum allowed number of steps=    108.
 GradGradGradGradGradGradGradGradGradGradGradGradGradGradGradGradGradGrad

                          Input orientation:                          
 ---------------------------------------------------------------------
 Center     Atomic      Atomic             Coordinates (Angstroms)
 Number     Number       Type             X           Y           Z
 ---------------------------------------------------------------------
      1          6           0       -2.379210   -0.000290   -0.930060
      2          6           0       -1.185730   -0.000100    0.023410
      3          6           0       -1.646350    0.000400    1.483720
      4          8           0       -0.445580    1.174930   -0.268410
      5          6           0        0.871880    1.250410   -0.018900
      6          8           0        1.478830    2.246450   -0.274550
      7          6           0        1.498820    0.000080    0.566220
      8          6           0        0.872020   -1.250360   -0.018670
      9          8           0        1.479090   -2.246250   -0.274600
     10          8           0       -0.445590   -1.175300   -0.267680
     11          1           0       -2.976350    0.890000   -0.763070
     12          1           0       -2.977100   -0.889850   -0.761970
     13          1           0       -2.019070   -0.001080   -1.954820
     14          1           0       -2.245420    0.887850    1.665600
     15          1           0       -2.246780   -0.886060    1.665780
     16          1           0       -0.806070   -0.000210    2.172540
     17          1           0        2.572940    0.000090    0.377030
     18          1           0        1.349420    0.000250    1.649150
 ---------------------------------------------------------------------
                    Distance matrix (angstroms):
                    1          2          3          4          5
     1  C    0.000000
     2  C    1.527580   0.000000
     3  C    2.522582   1.531234   0.000000
     4  O    2.357509   1.419041   2.427206   0.000000
     5  C    3.600562   2.408179   3.187769   1.343002   0.000000
     6  O    4.512428   3.497949   4.231194   2.202623   1.194086
     7  C    4.156678   2.738878   3.276263   2.420242   1.516161
     8  C    3.600528   2.408164   3.188066   2.771366   2.500770
     9  O    4.512255   3.497894   4.231725   3.925413   3.558190
    10  O    2.357601   1.419026   2.427241   2.350230   2.771586
    11  H    1.084932   2.148755   2.758324   2.594354   3.936059
    12  H    1.084916   2.148833   2.758000   3.303863   4.466264
    13  H    1.086202   2.146590   3.458682   2.588986   3.697513
    14  H    2.746660   2.146669   1.086063   2.657486   3.561818
    15  H    2.745999   2.146656   1.086036   3.351581   4.138682
    16  H    3.478634   2.182407   1.086528   2.732973   3.030178
    17  H    5.121745   3.775268   4.362015   3.302772   2.147945
    18  H    4.533763   3.011647   3.000334   2.877314   2.138536
                    6          7          8          9         10
     6  O    0.000000
     7  C    2.398640   0.000000
     8  C    3.558282   1.516105   0.000000
     9  O    4.492700   2.398618   1.194082   0.000000
    10  O    3.925788   2.420256   1.343032   2.202584   0.000000
    11  H    4.682653   4.752485   4.466008   5.470431   3.303880
    12  H    5.470765   4.752886   3.936774   4.683479   2.595062
    13  H    4.484418   4.327955   3.696996   4.483420   2.588643
    14  H    4.413617   4.002013   4.138495   5.240127   3.351648
    15  H    5.240007   4.002973   3.563285   4.415575   2.658235
    16  H    4.031935   2.809410   3.029895   4.031767   2.732299
    17  H    2.582202   1.090654   2.147867   2.582087   3.302835
    18  H    2.960200   1.093187   2.138588   2.960471   2.877189
                   11         12         13         14         15
    11  H    0.000000
    12  H    1.779850   0.000000
    13  H    1.769372   1.769357   0.000000
    14  H    2.536277   3.096558   3.734819   0.000000
    15  H    3.096122   2.535222   3.734138   1.773911   0.000000
    16  H    3.757711   3.757150   4.301915   1.765607   1.765554
    17  H    5.734665   5.735177   5.150154   5.066076   5.067133
    18  H    5.032171   5.032351   4.933085   3.702834   3.703846
                   16         17         18
    16  H    0.000000
    17  H    3.826430   0.000000
    18  H    2.218124   1.765019   0.000000
 Stoichiometry    C6H8O4
 Framework group  C1[X(C6H8O4)]
 Deg. of freedom    48
 Full point group                 C1      NOp   1
 Largest Abelian subgroup         C1      NOp   1
 Largest concise Abelian subgroup C1      NOp   1
                         Standard orientation:                         
 ---------------------------------------------------------------------
 Center     Atomic      Atomic             Coordinates (Angstroms)
 Number     Number       Type             X           Y           Z
 ---------------------------------------------------------------------
      1          6           0       -2.328876   -0.000297   -0.930469
      2          6           0       -1.124826   -0.000096    0.009617
      3          6           0       -1.569115    0.000441    1.474979
      4          8           0       -0.387970    1.174921   -0.290474
      5          6           0        0.932194    1.250394   -0.055689
      6          8           0        1.536261    2.246423   -0.318122
      7          6           0        1.565616    0.000072    0.522424
      8          6           0        0.932315   -1.250376   -0.055404
      9          8           0        1.536481   -2.246277   -0.318073
     10          8           0       -0.387992   -1.175309   -0.289690
     11          1           0       -2.924107    0.890002   -0.756844
     12          1           0       -2.924860   -0.889848   -0.755695
     13          1           0       -1.980199   -0.001113   -1.959186
     14          1           0       -2.166109    0.887901    1.663515
     15          1           0       -2.167483   -0.886009    1.663751
     16          1           0       -0.721197   -0.000161    2.154375
     17          1           0        2.637557    0.000068    0.321254
     18          1           0        1.428315    0.000268    1.606954
 ---------------------------------------------------------------------
 Rotational constants (GHZ):           1.6306245           1.4700687           0.9599645
 Standard basis: def2TZVP (5D, 7F)
 There are   408 symmetry adapted cartesian basis functions of A   symmetry.
 There are   358 symmetry adapted basis functions of A   symmetry.
   358 basis functions,   574 primitive gaussians,   408 cartesian basis functions
    38 alpha electrons       38 beta electrons
       nuclear repulsion energy       572.0649554881 Hartrees.
 NAtoms=   18 NActive=   18 NUniq=   18 SFac= 1.00D+00 NAtFMM=   60 NAOKFM=F Big=F
 Integral buffers will be    131072 words long.
 Raffenetti 2 integral format.
 Two-electron integral symmetry is turned on.
 One-electron integrals computed using PRISM.
   1 Symmetry operations used in ECPInt.
 ECPInt:  NShTT=   10153 NPrTT=   31120 LenC2=    9875 LenP2D=   23752.
 LDataN:  DoStor=T MaxTD1= 6 Len=  172
 NBasis=   358 RedAO= T EigKep=  1.26D-04  NBF=   358
 NBsUse=   358 1.00D-06 EigRej= -1.00D+00 NBFU=   358
 ExpMin= 9.52D-02 ExpMax= 2.70D+04 ExpMxC= 9.22D+02 IAcc=3 IRadAn=         5 AccDes= 0.00D+00
 Harris functional with IExCor= 1009 and IRadAn=       5 diagonalized for initial guess.
 HarFok:  IExCor= 1009 AccDes= 0.00D+00 IRadAn=         5 IDoV= 1 UseB2=F ITyADJ=14
 ICtDFT=  3500011 ScaDFX=  1.000000  1.000000  1.000000  1.000000
 FoFCou: FMM=F IPFlag=           0 FMFlag=      100000 FMFlg1=           0
         NFxFlg=           0 DoJE=T BraDBF=F KetDBF=T FulRan=T
         wScrn=  0.000000 ICntrl=       500 IOpCl=  0 I1Cent=   200000004 NGrid=           0
         NMat0=    1 NMatS0=      1 NMatT0=    0 NMatD0=    1 NMtDS0=    0 NMtDT0=    0
 Petite list used in FoFCou.
 Requested convergence on RMS density matrix=1.00D-08 within 128 cycles.
 Requested convergence on MAX density matrix=1.00D-06.
 Requested convergence on             energy=1.00D-06.
 No special actions if energy rises.
 Integral accuracy reduced to 1.0D-05 until final iterations.
 Initial convergence to 1.0D-05 achieved.  Increase integral accuracy.
 SCF Done:  E(RM062X) =  -534.378948591     A.U. after   14 cycles
            NFock= 14  Conv=0.78D-08     -V/T= 2.0045

 **********************************************************************

            Population analysis using the SCF Density.

 **********************************************************************

 Orbital symmetries:
       Occupied  (A) (A) (A) (A) (A) (A) (A) (A) (A) (A) (A) (A)
                 (A) (A) (A) (A) (A) (A) (A) (A) (A) (A) (A) (A)
                 (A) (A) (A) (A) (A) (A) (A) (A) (A) (A) (A) (A)
                 (A) (A)
       Virtual   (A) (A) (A) (A) (A) (A) (A) (A) (A) (A) (A) (A)
                 (A) (A) (A) (A) (A) (A) (A) (A) (A) (A) (A) (A)
                 (A) (A) (A) (A) (A) (A) (A) (A) (A) (A) (A) (A)
                 (A) (A) (A) (A) (A) (A) (A) (A) (A) (A) (A) (A)
                 (A) (A) (A) (A) (A) (A) (A) (A) (A) (A) (A) (A)
                 (A) (A) (A) (A) (A) (A) (A) (A) (A) (A) (A) (A)
                 (A) (A) (A) (A) (A) (A) (A) (A) (A) (A) (A) (A)
                 (A) (A) (A) (A) (A) (A) (A) (A) (A) (A) (A) (A)
                 (A) (A) (A) (A) (A) (A) (A) (A) (A) (A) (A) (A)
                 (A) (A) (A) (A) (A) (A) (A) (A) (A) (A) (A) (A)
                 (A) (A) (A) (A) (A) (A) (A) (A) (A) (A) (A) (A)
                 (A) (A) (A) (A) (A) (A) (A) (A) (A) (A) (A) (A)
                 (A) (A) (A) (A) (A) (A) (A) (A) (A) (A) (A) (A)
                 (A) (A) (A) (A) (A) (A) (A) (A) (A) (A) (A) (A)
                 (A) (A) (A) (A) (A) (A) (A) (A) (A) (A) (A) (A)
                 (A) (A) (A) (A) (A) (A) (A) (A) (A) (A) (A) (A)
                 (A) (A) (A) (A) (A) (A) (A) (A) (A) (A) (A) (A)
                 (A) (A) (A) (A) (A) (A) (A) (A) (A) (A) (A) (A)
                 (A) (A) (A) (A) (A) (A) (A) (A) (A) (A) (A) (A)
                 (A) (A) (A) (A) (A) (A) (A) (A) (A) (A) (A) (A)
                 (A) (A) (A) (A) (A) (A) (A) (A) (A) (A) (A) (A)
                 (A) (A) (A) (A) (A) (A) (A) (A) (A) (A) (A) (A)
                 (A) (A) (A) (A) (A) (A) (A) (A) (A) (A) (A) (A)
                 (A) (A) (A) (A) (A) (A) (A) (A) (A) (A) (A) (A)
                 (A) (A) (A) (A) (A) (A) (A) (A) (A) (A) (A) (A)
                 (A) (A) (A) (A) (A) (A) (A) (A) (A) (A) (A) (A)
                 (A) (A) (A) (A) (A) (A) (A) (A)
 The electronic state is 1-A.
 Alpha  occ. eigenvalues --  -19.69810 -19.69808 -19.63345 -19.63344 -10.70035
 Alpha  occ. eigenvalues --  -10.70034 -10.69887 -10.59095 -10.56379 -10.55467
 Alpha  occ. eigenvalues --   -1.29080  -1.24496  -1.18476  -1.15888  -0.93847
 Alpha  occ. eigenvalues --   -0.89592  -0.82820  -0.76290  -0.75407  -0.65526
 Alpha  occ. eigenvalues --   -0.63515  -0.61931  -0.58996  -0.55687  -0.55057
 Alpha  occ. eigenvalues --   -0.54444  -0.53220  -0.50684  -0.50453  -0.48931
 Alpha  occ. eigenvalues --   -0.48616  -0.47669  -0.45886  -0.44646  -0.40966
 Alpha  occ. eigenvalues --   -0.39327  -0.38111  -0.36439
 Alpha virt. eigenvalues --    0.01089   0.04065   0.04518   0.07785   0.09836
 Alpha virt. eigenvalues --    0.10057   0.10852   0.12986   0.13315   0.14520
 Alpha virt. eigenvalues --    0.14824   0.16357   0.17446   0.17527   0.17928
 Alpha virt. eigenvalues --    0.18025   0.19461   0.21039   0.22458   0.24878
 Alpha virt. eigenvalues --    0.25278   0.25992   0.29422   0.30378   0.30602
 Alpha virt. eigenvalues --    0.32136   0.32197   0.33802   0.35474   0.35712
 Alpha virt. eigenvalues --    0.36123   0.37162   0.38927   0.39202   0.40693
 Alpha virt. eigenvalues --    0.41753   0.42048   0.43559   0.45028   0.46693
 Alpha virt. eigenvalues --    0.47072   0.48307   0.48513   0.49116   0.49585
 Alpha virt. eigenvalues --    0.51191   0.51541   0.52472   0.54453   0.57007
 Alpha virt. eigenvalues --    0.57921   0.58916   0.60060   0.61350   0.62362
 Alpha virt. eigenvalues --    0.65295   0.67004   0.67583   0.67930   0.72595
 Alpha virt. eigenvalues --    0.73808   0.75042   0.76112   0.76450   0.81068
 Alpha virt. eigenvalues --    0.82077   0.82799   0.85303   0.86210   0.88555
 Alpha virt. eigenvalues --    0.88600   0.90528   0.92996   0.94210   0.95504
 Alpha virt. eigenvalues --    0.95524   0.97417   0.98711   1.00240   1.00572
 Alpha virt. eigenvalues --    1.02723   1.05271   1.06798   1.07559   1.10114
 Alpha virt. eigenvalues --    1.11876   1.18234   1.18710   1.20356   1.22626
 Alpha virt. eigenvalues --    1.23267   1.26264   1.28550   1.29743   1.36087
 Alpha virt. eigenvalues --    1.37721   1.40693   1.44170   1.47435   1.48305
 Alpha virt. eigenvalues --    1.50947   1.52320   1.53267   1.53837   1.55764
 Alpha virt. eigenvalues --    1.58079   1.58270   1.59221   1.61779   1.62070
 Alpha virt. eigenvalues --    1.63066   1.64360   1.64649   1.67647   1.68818
 Alpha virt. eigenvalues --    1.69945   1.71323   1.72727   1.75253   1.75745
 Alpha virt. eigenvalues --    1.80981   1.86224   1.89493   1.91798   1.92347
 Alpha virt. eigenvalues --    1.94801   1.96851   1.97681   1.97809   2.01475
 Alpha virt. eigenvalues --    2.03487   2.03878   2.05126   2.06375   2.07899
 Alpha virt. eigenvalues --    2.12131   2.13332   2.14999   2.16418   2.19148
 Alpha virt. eigenvalues --    2.20711   2.21815   2.24316   2.26238   2.27836
 Alpha virt. eigenvalues --    2.29458   2.30287   2.31166   2.32475   2.34824
 Alpha virt. eigenvalues --    2.35648   2.36217   2.38164   2.40010   2.40506
 Alpha virt. eigenvalues --    2.42039   2.44512   2.50166   2.52443   2.55870
 Alpha virt. eigenvalues --    2.56629   2.57939   2.58848   2.58930   2.61014
 Alpha virt. eigenvalues --    2.63500   2.63680   2.67899   2.68976   2.70417
 Alpha virt. eigenvalues --    2.71902   2.72541   2.75449   2.77250   2.81725
 Alpha virt. eigenvalues --    2.83562   2.84328   2.87549   2.91303   2.91485
 Alpha virt. eigenvalues --    2.94221   2.94984   2.95064   2.96773   2.96873
 Alpha virt. eigenvalues --    3.00236   3.02807   3.03019   3.07229   3.07343
 Alpha virt. eigenvalues --    3.10484   3.11571   3.12448   3.14243   3.15543
 Alpha virt. eigenvalues --    3.15997   3.18106   3.19392   3.22265   3.23943
 Alpha virt. eigenvalues --    3.24246   3.25420   3.26920   3.28678   3.30594
 Alpha virt. eigenvalues --    3.31517   3.33248   3.34418   3.36142   3.37755
 Alpha virt. eigenvalues --    3.38260   3.40097   3.41652   3.43962   3.45954
 Alpha virt. eigenvalues --    3.47231   3.50030   3.52078   3.53175   3.56623
 Alpha virt. eigenvalues --    3.57977   3.58659   3.61387   3.61649   3.63345
 Alpha virt. eigenvalues --    3.70263   3.72225   3.75205   3.79858   3.80557
 Alpha virt. eigenvalues --    3.83802   3.89849   3.91826   3.94361   3.97315
 Alpha virt. eigenvalues --    3.99138   4.00726   4.02834   4.03900   4.05451
 Alpha virt. eigenvalues --    4.07263   4.11554   4.15104   4.25271   4.30169
 Alpha virt. eigenvalues --    4.33269   4.35229   4.35811   4.42937   4.43131
 Alpha virt. eigenvalues --    4.46693   4.51085   4.51960   4.55267   4.59495
 Alpha virt. eigenvalues --    4.62269   4.68846   4.71954   4.77938   4.80574
 Alpha virt. eigenvalues --    4.84736   4.94890   5.19045   5.19366   5.21713
 Alpha virt. eigenvalues --    5.23082   5.24114   5.31150   5.37082   5.40381
 Alpha virt. eigenvalues --    5.46501   5.53613   5.60483   5.63219   5.71589
 Alpha virt. eigenvalues --    5.81634   5.87212   5.88534   5.93356   5.93910
 Alpha virt. eigenvalues --    6.00129   6.10069   6.14397   6.16362   6.24946
 Alpha virt. eigenvalues --    6.25400   6.37325   6.37480   6.39327   6.41668
 Alpha virt. eigenvalues --    6.47895   6.49426   6.59697   6.69918   6.71644
 Alpha virt. eigenvalues --    6.75164   6.78726   6.78886   6.85251   6.85870
 Alpha virt. eigenvalues --    6.92203   6.92441   7.05342   7.06291   7.06786
 Alpha virt. eigenvalues --    7.07489   7.21006   7.24946   7.36996   7.42800
 Alpha virt. eigenvalues --   22.46762  22.49654  22.57629  22.79148  23.39200
 Alpha virt. eigenvalues --   23.45980  44.01720  44.03032  44.48993  44.52697
          Condensed to atoms (all electrons):
               1          2          3          4          5          6
     1  C    5.128502   0.321907  -0.118776  -0.069406  -0.005835  -0.000277
     2  C    0.321907   4.973098   0.352051   0.189811  -0.010443  -0.000983
     3  C   -0.118776   0.352051   5.036460  -0.032060  -0.011522  -0.000211
     4  O   -0.069406   0.189811  -0.032060   8.001587   0.310025  -0.090561
     5  C   -0.005835  -0.010443  -0.011522   0.310025   4.552395   0.705686
     6  O   -0.000277  -0.000983  -0.000211  -0.090561   0.705686   7.738840
     7  C   -0.000212  -0.023623  -0.001421  -0.101021   0.202254  -0.086728
     8  C   -0.005815  -0.010468  -0.011531   0.018175  -0.011738   0.004535
     9  O   -0.000275  -0.000986  -0.000212  -0.000242   0.004531  -0.000092
    10  O   -0.069427   0.189874  -0.032046  -0.032176   0.018148  -0.000243
    11  H    0.401164  -0.026455  -0.006907  -0.000507  -0.000434   0.000031
    12  H    0.401166  -0.026445  -0.006924   0.005471   0.000471   0.000009
    13  H    0.396613  -0.024394   0.010445   0.001093  -0.000456  -0.000078
    14  H   -0.010307  -0.040477   0.423928   0.000793  -0.001101   0.000027
    15  H   -0.010325  -0.040484   0.423933   0.005030   0.001181  -0.000005
    16  H    0.014188   0.003197   0.368080  -0.005047  -0.006175   0.000072
    17  H    0.000314   0.000230   0.000458   0.003797  -0.017750   0.004565
    18  H    0.000109  -0.002035  -0.003291   0.003277  -0.036777   0.001720
               7          8          9         10         11         12
     1  C   -0.000212  -0.005815  -0.000275  -0.069427   0.401164   0.401166
     2  C   -0.023623  -0.010468  -0.000986   0.189874  -0.026455  -0.026445
     3  C   -0.001421  -0.011531  -0.000212  -0.032046  -0.006907  -0.006924
     4  O   -0.101021   0.018175  -0.000242  -0.032176  -0.000507   0.005471
     5  C    0.202254  -0.011738   0.004531   0.018148  -0.000434   0.000471
     6  O   -0.086728   0.004535  -0.000092  -0.000243   0.000031   0.000009
     7  C    5.597706   0.202183  -0.086729  -0.101012   0.000309   0.000308
     8  C    0.202183   4.552435   0.705694   0.310036   0.000471  -0.000434
     9  O   -0.086729   0.705694   7.738842  -0.090576   0.000009   0.000031
    10  O   -0.101012   0.310036  -0.090576   8.001569   0.005472  -0.000507
    11  H    0.000309   0.000471   0.000009   0.005472   0.514902  -0.025607
    12  H    0.000308  -0.000434   0.000031  -0.000507  -0.025607   0.514946
    13  H   -0.000037  -0.000459  -0.000078   0.001096  -0.017431  -0.017437
    14  H    0.000610   0.001183  -0.000005   0.005028   0.000394   0.000793
    15  H    0.000612  -0.001096   0.000027   0.000797   0.000791   0.000394
    16  H    0.008379  -0.006179   0.000072  -0.005054  -0.000115  -0.000114
    17  H    0.381400  -0.017755   0.004570   0.003800  -0.000011  -0.000011
    18  H    0.399464  -0.036772   0.001721   0.003275  -0.000019  -0.000019
              13         14         15         16         17         18
     1  C    0.396613  -0.010307  -0.010325   0.014188   0.000314   0.000109
     2  C   -0.024394  -0.040477  -0.040484   0.003197   0.000230  -0.002035
     3  C    0.010445   0.423928   0.423933   0.368080   0.000458  -0.003291
     4  O    0.001093   0.000793   0.005030  -0.005047   0.003797   0.003277
     5  C   -0.000456  -0.001101   0.001181  -0.006175  -0.017750  -0.036777
     6  O   -0.000078   0.000027  -0.000005   0.000072   0.004565   0.001720
     7  C   -0.000037   0.000610   0.000612   0.008379   0.381400   0.399464
     8  C   -0.000459   0.001183  -0.001096  -0.006179  -0.017755  -0.036772
     9  O   -0.000078  -0.000005   0.000027   0.000072   0.004570   0.001721
    10  O    0.001096   0.005028   0.000797  -0.005054   0.003800   0.003275
    11  H   -0.017431   0.000394   0.000791  -0.000115  -0.000011  -0.000019
    12  H   -0.017437   0.000793   0.000394  -0.000114  -0.000011  -0.000019
    13  H    0.491163  -0.000184  -0.000183  -0.000347  -0.000022  -0.000010
    14  H   -0.000184   0.494262  -0.022206  -0.022001  -0.000022   0.000122
    15  H   -0.000183  -0.022206   0.494312  -0.021995  -0.000022   0.000122
    16  H   -0.000347  -0.022001  -0.021995   0.538231   0.000605  -0.004170
    17  H   -0.000022  -0.000022  -0.000022   0.000605   0.445367  -0.003213
    18  H   -0.000010   0.000122   0.000122  -0.004170  -0.003213   0.482205
 Mulliken charges:
               1
     1  C   -0.373306
     2  C    0.176626
     3  C   -0.390453
     4  O   -0.208040
     5  C    0.307539
     6  O   -0.276306
     7  C   -0.392443
     8  C    0.307535
     9  O   -0.276300
    10  O   -0.208055
    11  H    0.153944
    12  H    0.153909
    13  H    0.160706
    14  H    0.169163
    15  H    0.169117
    16  H    0.138375
    17  H    0.193700
    18  H    0.194290
 Sum of Mulliken charges =  -0.00000
 Mulliken charges with hydrogens summed into heavy atoms:
               1
     1  C    0.095252
     2  C    0.176626
     3  C    0.086201
     4  O   -0.208040
     5  C    0.307539
     6  O   -0.276306
     7  C   -0.004453
     8  C    0.307535
     9  O   -0.276300
    10  O   -0.208055
 Electronic spatial extent (au):  <R**2>=           1300.7987
 Charge=             -0.0000 electrons
 Dipole moment (field-independent basis, Debye):
    X=             -3.1606    Y=              0.0004    Z=              2.5307  Tot=              4.0489
 Quadrupole moment (field-independent basis, Debye-Ang):
   XX=            -55.3290   YY=            -75.6927   ZZ=            -54.5076
   XY=              0.0001   XZ=              2.2404   YZ=              0.0016
 Traceless Quadrupole moment (field-independent basis, Debye-Ang):
   XX=              6.5141   YY=            -13.8496   ZZ=              7.3355
   XY=              0.0001   XZ=              2.2404   YZ=              0.0016
 Octapole moment (field-independent basis, Debye-Ang**2):
  XXX=             -9.1015  YYY=              0.0011  ZZZ=             -1.6346  XYY=            -24.5030
  XXY=             -0.0003  XXZ=              2.7003  XZZ=              1.3021  YZZ=             -0.0024
  YYZ=              7.8217  XYZ=             -0.0013
 Hexadecapole moment (field-independent basis, Debye-Ang**3):
 XXXX=           -774.3408 YYYY=           -689.6887 ZZZZ=           -236.0833 XXXY=              0.0204
 XXXZ=              5.5224 YYYX=             -0.0141 YYYZ=              0.0016 ZZZX=              3.0712
 ZZZY=              0.0017 XXYY=           -269.1134 XXZZ=           -168.3488 YYZZ=           -140.9111
 XXYZ=             -0.0064 YYXZ=              5.8243 ZZXY=              0.0021
 N-N= 5.720649554881D+02 E-N=-2.394836347570D+03  KE= 5.320072709254D+02
   1 Symmetry operations used in ECPInt.
 ECPInt:  NShTT=   10153 NPrTT=   31120 LenC2=    9875 LenP2D=   23752.
 LDataN:  DoStor=T MaxTD1= 7 Len=  274
 Calling FoFJK, ICntrl=      2127 FMM=F ISym2X=0 I1Cent= 0 IOpClX= 0 NMat=1 NMatS=1 NMatT=0.
 ***** Axes restored to original set *****
 -------------------------------------------------------------------
 Center     Atomic                   Forces (Hartrees/Bohr)
 Number     Number              X              Y              Z
 -------------------------------------------------------------------
      1        6           0.009811103    0.000007161    0.003474517
      2        6          -0.014499036    0.000006871    0.004511447
      3        6           0.004078140    0.000008934   -0.006833270
      4        8          -0.001845433    0.000724580   -0.002965096
      5        6           0.009435690    0.005411456    0.001715705
      6        8          -0.003346284   -0.005602822    0.002583082
      7        6          -0.000847113    0.000016579   -0.005146609
      8        6           0.009402984   -0.005433617    0.001698920
      9        8          -0.003331643    0.005596160    0.002592615
     10        8          -0.001847053   -0.000712913   -0.002961335
     11        1          -0.001335749    0.001519697    0.000955278
     12        1          -0.001336112   -0.001528457    0.000958499
     13        1           0.000939879    0.000001575   -0.001304068
     14        1          -0.000861862    0.001318894    0.000335914
     15        1          -0.000868265   -0.001334635    0.000342171
     16        1           0.001527780    0.000002342    0.001034335
     17        1          -0.004067955    0.000003466   -0.000340536
     18        1          -0.001009070   -0.000005271   -0.000651568
 -------------------------------------------------------------------
 Cartesian Forces:  Max     0.014499036 RMS     0.003931644

 GradGradGradGradGradGradGradGradGradGradGradGradGradGradGradGradGradGrad
 Berny optimization.
 FormGI is forming the generalized inverse of G from B-inverse, IUseBI=4.
 Internal  Forces:  Max     0.008861390 RMS     0.002029563
 Search for a local minimum.
 Step number   1 out of a maximum of  100
 All quantities printed in internal units (Hartrees-Bohrs-Radians)
 Mixed Optimization -- RFO/linear search
 Second derivative matrix not updated -- first step.
 ITU=  0
     Eigenvalues ---    0.00353   0.00401   0.00865   0.00930   0.01227
     Eigenvalues ---    0.01649   0.01937   0.04964   0.05563   0.05602
     Eigenvalues ---    0.05797   0.05841   0.05874   0.06783   0.08047
     Eigenvalues ---    0.08844   0.09686   0.11009   0.15633   0.16000
     Eigenvalues ---    0.16000   0.16000   0.16000   0.16000   0.16000
     Eigenvalues ---    0.18958   0.22725   0.23852   0.24996   0.24997
     Eigenvalues ---    0.29310   0.29648   0.29788   0.30115   0.34447
     Eigenvalues ---    0.34737   0.35217   0.35255   0.35272   0.35275
     Eigenvalues ---    0.35405   0.35407   0.40694   0.41018   0.52490
     Eigenvalues ---    0.56521   1.07852   1.07854
 RFO step:  Lambda=-1.31682856D-03 EMin= 3.52786908D-03
 Linear search not attempted -- first point.
 Iteration  1 RMS(Cart)=  0.02206833 RMS(Int)=  0.00027738
 Iteration  2 RMS(Cart)=  0.00031127 RMS(Int)=  0.00003730
 Iteration  3 RMS(Cart)=  0.00000005 RMS(Int)=  0.00003730
 Variable       Old X    -DE/DX   Delta X   Delta X   Delta X     New X
                                 (Linear)    (Quad)   (Total)
    R1        2.88671  -0.00886   0.00000  -0.02976  -0.02976   2.85695
    R2        2.05022   0.00213   0.00000   0.00599   0.00599   2.05622
    R3        2.05019   0.00214   0.00000   0.00602   0.00602   2.05621
    R4        2.05262   0.00154   0.00000   0.00436   0.00436   2.05698
    R5        2.89361  -0.00605   0.00000  -0.02055  -0.02055   2.87306
    R6        2.68160   0.00248   0.00000   0.00605   0.00602   2.68762
    R7        2.68157   0.00247   0.00000   0.00604   0.00601   2.68758
    R8        2.05236   0.00161   0.00000   0.00455   0.00455   2.05691
    R9        2.05231   0.00163   0.00000   0.00459   0.00459   2.05690
   R10        2.05324   0.00184   0.00000   0.00520   0.00520   2.05844
   R11        2.53791   0.00335   0.00000   0.00592   0.00592   2.54383
   R12        2.25650  -0.00693   0.00000  -0.00642  -0.00642   2.25008
   R13        2.86513  -0.00342   0.00000  -0.01143  -0.01140   2.85373
   R14        2.86502  -0.00340   0.00000  -0.01137  -0.01134   2.85368
   R15        2.06104  -0.00395   0.00000  -0.01132  -0.01132   2.04972
   R16        2.06582  -0.00051   0.00000  -0.00147  -0.00147   2.06436
   R17        2.25649  -0.00692   0.00000  -0.00641  -0.00641   2.25008
   R18        2.53796   0.00334   0.00000   0.00591   0.00591   2.54387
    A1        1.91117  -0.00033   0.00000  -0.00287  -0.00288   1.90830
    A2        1.91130  -0.00034   0.00000  -0.00293  -0.00294   1.90836
    A3        1.90691  -0.00039   0.00000  -0.00073  -0.00073   1.90618
    A4        1.92375  -0.00005   0.00000  -0.00359  -0.00361   1.92014
    A5        1.90530   0.00055   0.00000   0.00509   0.00509   1.91039
    A6        1.90529   0.00055   0.00000   0.00509   0.00510   1.91039
    A7        1.93932   0.00269   0.00000   0.01856   0.01855   1.95786
    A8        1.85381  -0.00074   0.00000  -0.00288  -0.00287   1.85094
    A9        1.85393  -0.00074   0.00000  -0.00295  -0.00294   1.85099
   A10        1.93131  -0.00085   0.00000  -0.00427  -0.00428   1.92702
   A11        1.93136  -0.00085   0.00000  -0.00432  -0.00433   1.92703
   A12        1.95145   0.00058   0.00000  -0.00350  -0.00359   1.94787
   A13        1.90277   0.00013   0.00000   0.00095   0.00094   1.90371
   A14        1.90278   0.00013   0.00000   0.00096   0.00096   1.90374
   A15        1.95192  -0.00030   0.00000  -0.00222  -0.00222   1.94970
   A16        1.91127  -0.00004   0.00000   0.00048   0.00048   1.91175
   A17        1.89745   0.00004   0.00000  -0.00007  -0.00007   1.89738
   A18        1.89740   0.00004   0.00000  -0.00007  -0.00007   1.89733
   A19        2.11764  -0.00105   0.00000  -0.00415  -0.00427   2.11338
   A20        2.10103   0.00117   0.00000   0.00520   0.00512   2.10615
   A21        2.01639  -0.00134   0.00000  -0.00602  -0.00613   2.01026
   A22        2.16559   0.00017   0.00000   0.00126   0.00118   2.16677
   A23        1.93941   0.00467   0.00000   0.02030   0.02037   1.95978
   A24        1.91802  -0.00142   0.00000  -0.00333  -0.00337   1.91464
   A25        1.90251  -0.00158   0.00000  -0.01050  -0.01047   1.89204
   A26        1.91798  -0.00142   0.00000  -0.00329  -0.00333   1.91465
   A27        1.90265  -0.00159   0.00000  -0.01057  -0.01054   1.89211
   A28        1.88224   0.00124   0.00000   0.00685   0.00683   1.88906
   A29        2.16564   0.00016   0.00000   0.00122   0.00114   2.16678
   A30        2.01644  -0.00135   0.00000  -0.00606  -0.00617   2.01027
   A31        2.10093   0.00119   0.00000   0.00528   0.00520   2.10613
   A32        2.11760  -0.00104   0.00000  -0.00411  -0.00422   2.11338
    D1        1.05608  -0.00024   0.00000  -0.00432  -0.00431   1.05177
    D2       -1.04538  -0.00027   0.00000  -0.00783  -0.00785  -1.05323
    D3       -3.12550  -0.00021   0.00000  -0.00091  -0.00087  -3.12637
    D4       -1.05516   0.00024   0.00000   0.00373   0.00373  -1.05144
    D5        3.12656   0.00021   0.00000   0.00022   0.00019   3.12674
    D6        1.04644   0.00027   0.00000   0.00715   0.00717   1.05361
    D7       -3.14117   0.00000   0.00000  -0.00028  -0.00028  -3.14144
    D8        1.04055  -0.00003   0.00000  -0.00379  -0.00382   1.03674
    D9       -1.03956   0.00003   0.00000   0.00313   0.00316  -1.03640
   D10       -1.04357  -0.00005   0.00000  -0.00045  -0.00045  -1.04402
   D11        1.04214   0.00005   0.00000   0.00126   0.00126   1.04340
   D12        3.14085  -0.00000   0.00000   0.00041   0.00041   3.14126
   D13        1.01142   0.00018   0.00000   0.00494   0.00495   1.01637
   D14        3.09713   0.00029   0.00000   0.00665   0.00666   3.10379
   D15       -1.08735   0.00024   0.00000   0.00580   0.00581  -1.08153
   D16       -3.09874  -0.00028   0.00000  -0.00572  -0.00574  -3.10448
   D17       -1.01303  -0.00018   0.00000  -0.00401  -0.00403  -1.01706
   D18        1.08568  -0.00023   0.00000  -0.00486  -0.00488   1.08081
   D19       -2.68783   0.00083   0.00000  -0.01660  -0.01661  -2.70444
   D20        1.48871  -0.00149   0.00000  -0.03485  -0.03484   1.45387
   D21       -0.67282  -0.00019   0.00000  -0.02358  -0.02358  -0.69640
   D22        2.68721  -0.00082   0.00000   0.01673   0.01674   2.70395
   D23       -1.48922   0.00149   0.00000   0.03491   0.03490  -1.45433
   D24        0.67227   0.00019   0.00000   0.02367   0.02367   0.69594
   D25        3.13807   0.00140   0.00000   0.04859   0.04858  -3.09654
   D26        0.01622   0.00119   0.00000   0.02460   0.02454   0.04076
   D27        0.63254  -0.00011   0.00000  -0.01517  -0.01522   0.61732
   D28        2.75921   0.00024   0.00000  -0.00807  -0.00807   2.75114
   D29       -1.46467  -0.00003   0.00000  -0.00792  -0.00791  -1.47258
   D30       -2.48849  -0.00034   0.00000  -0.04020  -0.04024  -2.52873
   D31       -0.36182   0.00001   0.00000  -0.03310  -0.03309  -0.39491
   D32        1.69748  -0.00026   0.00000  -0.03295  -0.03293   1.66455
   D33        2.48802   0.00034   0.00000   0.04041   0.04045   2.52848
   D34       -0.63302   0.00011   0.00000   0.01525   0.01530  -0.61772
   D35        0.36133  -0.00001   0.00000   0.03333   0.03332   0.39466
   D36       -2.75971  -0.00023   0.00000   0.00817   0.00817  -2.75154
   D37       -1.69803   0.00026   0.00000   0.03320   0.03318  -1.66485
   D38        1.46411   0.00003   0.00000   0.00804   0.00803   1.47214
   D39       -0.01526  -0.00119   0.00000  -0.02476  -0.02469  -0.03996
   D40       -3.13713  -0.00140   0.00000  -0.04886  -0.04885   3.09720
         Item               Value     Threshold  Converged?
 Maximum Force            0.008861     0.000450     NO 
 RMS     Force            0.002030     0.000300     NO 
 Maximum Displacement     0.086085     0.001800     NO 
 RMS     Displacement     0.022090     0.001200     NO 
 Predicted change in Energy=-6.728963D-04
 GradGradGradGradGradGradGradGradGradGradGradGradGradGradGradGradGradGrad

                          Input orientation:                          
 ---------------------------------------------------------------------
 Center     Atomic      Atomic             Coordinates (Angstroms)
 Number     Number       Type             X           Y           Z
 ---------------------------------------------------------------------
      1          6           0       -2.374987   -0.000227   -0.929426
      2          6           0       -1.193433   -0.000032    0.013743
      3          6           0       -1.623232    0.000420    1.472087
      4          8           0       -0.451872    1.176181   -0.285152
      5          6           0        0.865250    1.254043   -0.018306
      6          8           0        1.469443    2.258127   -0.229281
      7          6           0        1.479526    0.000043    0.556704
      8          6           0        0.865285   -1.254068   -0.018038
      9          8           0        1.469539   -2.258110   -0.229046
     10          8           0       -0.451963   -1.176458   -0.284453
     11          1           0       -2.974241    0.891366   -0.756436
     12          1           0       -2.974590   -0.891446   -0.755736
     13          1           0       -2.013745   -0.000702   -1.956243
     14          1           0       -2.219816    0.889761    1.666826
     15          1           0       -2.220465   -0.888399    1.667214
     16          1           0       -0.766402    0.000223    2.144671
     17          1           0        2.548808    0.000039    0.374688
     18          1           0        1.316646    0.000199    1.636903
 ---------------------------------------------------------------------
                    Distance matrix (angstroms):
                    1          2          3          4          5
     1  C    0.000000
     2  C    1.511833   0.000000
     3  C    2.516427   1.520360   0.000000
     4  O    2.344654   1.422227   2.417104   0.000000
     5  C    3.592001   2.410789   3.159966   1.346134   0.000000
     6  O    4.513315   3.499893   4.190052   2.205715   1.190691
     7  C    4.131084   2.727547   3.234971   2.412948   1.510128
     8  C    3.591951   2.410795   3.160210   2.777114   2.508111
     9  O    4.513197   3.499897   4.190470   3.935648   3.569986
    10  O    2.344682   1.422208   2.417094   2.352639   2.777268
    11  H    1.088103   2.135192   2.754147   2.581778   3.926584
    12  H    1.088100   2.135237   2.754049   3.295548   4.459965
    13  H    1.088508   2.133953   3.450500   2.572362   3.690338
    14  H    2.748942   2.139598   1.088468   2.649128   3.534119
    15  H    2.748685   2.139616   1.088467   3.346961   4.117363
    16  H    3.469528   2.173295   1.089279   2.717692   2.985435
    17  H    5.093572   3.759608   4.313955   3.289800   2.135730
    18  H    4.496020   2.989171   2.944494   2.864417   2.124994
                    6          7          8          9         10
     6  O    0.000000
     7  C    2.390986   0.000000
     8  C    3.570034   1.510104   0.000000
     9  O    4.516237   2.390975   1.190692   0.000000
    10  O    3.935889   2.412954   1.346158   2.205722   0.000000
    11  H    4.678916   4.728089   4.459829   5.472158   3.295535
    12  H    5.472330   4.728255   3.926873   4.679257   2.582050
    13  H    4.496365   4.303236   3.690037   4.495816   2.572245
    14  H    4.367868   3.963470   4.117355   5.207183   3.346947
    15  H    5.206990   3.963899   3.534918   4.368986   2.649450
    16  H    3.966457   2.750605   2.985457   3.966614   2.717369
    17  H    2.574640   1.084664   2.135713   2.574598   3.289869
    18  H    2.933297   1.092410   2.125027   2.933445   2.864281
                   11         12         13         14         15
    11  H    0.000000
    12  H    1.782812   0.000000
    13  H    1.777040   1.777039   0.000000
    14  H    2.537984   3.100192   3.736578   0.000000
    15  H    3.099971   2.537597   3.736333   1.778161   0.000000
    16  H    3.753014   3.752802   4.286416   1.769753   1.769722
    17  H    5.707712   5.707936   5.123488   5.020060   5.020550
    18  H    4.993391   4.993441   4.899204   3.646749   3.647147
                   16         17         18
    16  H    0.000000
    17  H    3.758119   0.000000
    18  H    2.144042   1.763919   0.000000
 Stoichiometry    C6H8O4
 Framework group  C1[X(C6H8O4)]
 Deg. of freedom    48
 Full point group                 C1      NOp   1
 Largest Abelian subgroup         C1      NOp   1
 Largest concise Abelian subgroup C1      NOp   1
                         Standard orientation:                         
 ---------------------------------------------------------------------
 Center     Atomic      Atomic             Coordinates (Angstroms)
 Number     Number       Type             X           Y           Z
 ---------------------------------------------------------------------
      1          6           0       -2.333029   -0.000239   -0.902594
      2          6           0       -1.128853   -0.000057    0.011517
      3          6           0       -1.523005    0.000326    1.479897
      4          8           0       -0.394817    1.176185   -0.305302
      5          6           0        0.928412    1.254065   -0.070612
      6          8           0        1.527267    2.258171   -0.296199
      7          6           0        1.556537    0.000055    0.489213
      8          6           0        0.928506   -1.254046   -0.070449
      9          8           0        1.527462   -2.258067   -0.296153
     10          8           0       -0.394842   -1.176454   -0.304698
     11          1           0       -2.927910    0.891334   -0.715023
     12          1           0       -2.928205   -0.891477   -0.714387
     13          1           0       -1.996903   -0.000663   -1.937904
     14          1           0       -2.114687    0.889647    1.689146
     15          1           0       -2.115290   -0.888513    1.689476
     16          1           0       -0.650047    0.000120    2.131412
     17          1           0        2.621069    0.000081    0.281208
     18          1           0        1.420015    0.000162    1.573059
 ---------------------------------------------------------------------
 Rotational constants (GHZ):           1.6263620           1.4888410           0.9619871
 Standard basis: def2TZVP (5D, 7F)
 There are   408 symmetry adapted cartesian basis functions of A   symmetry.
 There are   358 symmetry adapted basis functions of A   symmetry.
   358 basis functions,   574 primitive gaussians,   408 cartesian basis functions
    38 alpha electrons       38 beta electrons
       nuclear repulsion energy       573.2287780729 Hartrees.
 NAtoms=   18 NActive=   18 NUniq=   18 SFac= 1.00D+00 NAtFMM=   60 NAOKFM=F Big=F
 Integral buffers will be    131072 words long.
 Raffenetti 2 integral format.
 Two-electron integral symmetry is turned on.
 One-electron integrals computed using PRISM.
   1 Symmetry operations used in ECPInt.
 ECPInt:  NShTT=   10153 NPrTT=   31120 LenC2=    9875 LenP2D=   23786.
 LDataN:  DoStor=T MaxTD1= 6 Len=  172
 NBasis=   358 RedAO= T EigKep=  1.19D-04  NBF=   358
 NBsUse=   358 1.00D-06 EigRej= -1.00D+00 NBFU=   358
 Initial guess from the checkpoint file:  "/home/svss/projects/Project-Philicity/GS/hydrocarbon/set-1/GS/mol_32_hc/mol_32_hc.chk"
 B after Tr=    -0.000000   -0.000000   -0.000000
         Rot=    0.999991   -0.000019   -0.004156   -0.000001 Ang=  -0.48 deg.
 ExpMin= 9.52D-02 ExpMax= 2.70D+04 ExpMxC= 9.22D+02 IAcc=3 IRadAn=         5 AccDes= 0.00D+00
 Harris functional with IExCor= 1009 and IRadAn=       5 diagonalized for initial guess.
 HarFok:  IExCor= 1009 AccDes= 0.00D+00 IRadAn=         5 IDoV= 1 UseB2=F ITyADJ=14
 ICtDFT=  3500011 ScaDFX=  1.000000  1.000000  1.000000  1.000000
 FoFCou: FMM=F IPFlag=           0 FMFlag=      100000 FMFlg1=           0
         NFxFlg=           0 DoJE=T BraDBF=F KetDBF=T FulRan=T
         wScrn=  0.000000 ICntrl=       500 IOpCl=  0 I1Cent=   200000004 NGrid=           0
         NMat0=    1 NMatS0=      1 NMatT0=    0 NMatD0=    1 NMtDS0=    0 NMtDT0=    0
 Petite list used in FoFCou.
 Requested convergence on RMS density matrix=1.00D-08 within 128 cycles.
 Requested convergence on MAX density matrix=1.00D-06.
 Requested convergence on             energy=1.00D-06.
 No special actions if energy rises.
 Integral accuracy reduced to 1.0D-05 until final iterations.
 Initial convergence to 1.0D-05 achieved.  Increase integral accuracy.
 SCF Done:  E(RM062X) =  -534.379705642     A.U. after   12 cycles
            NFock= 12  Conv=0.82D-08     -V/T= 2.0043
   1 Symmetry operations used in ECPInt.
 ECPInt:  NShTT=   10153 NPrTT=   31120 LenC2=    9875 LenP2D=   23786.
 LDataN:  DoStor=T MaxTD1= 7 Len=  274
 Calling FoFJK, ICntrl=      2127 FMM=F ISym2X=0 I1Cent= 0 IOpClX= 0 NMat=1 NMatS=1 NMatT=0.
 ***** Axes restored to original set *****
 -------------------------------------------------------------------
 Center     Atomic                   Forces (Hartrees/Bohr)
 Number     Number              X              Y              Z
 -------------------------------------------------------------------
      1        6           0.001641714    0.000003571    0.000274833
      2        6          -0.003844856    0.000004218    0.002673211
      3        6           0.001051122    0.000001071   -0.001000367
      4        8          -0.000041607    0.001303562   -0.003329012
      5        6           0.002318080    0.002248403    0.004250397
      6        8          -0.000891187   -0.001270611   -0.000268943
      7        6          -0.000138262    0.000010308   -0.003927259
      8        6           0.002299806   -0.002261377    0.004257738
      9        8          -0.000892240    0.001273946   -0.000269004
     10        8          -0.000024512   -0.001309330   -0.003335936
     11        1          -0.000471720   -0.000128792   -0.000152336
     12        1          -0.000468610    0.000126173   -0.000151259
     13        1          -0.000241906    0.000000978    0.000161577
     14        1          -0.000087542   -0.000045646    0.000382846
     15        1          -0.000086140    0.000043806    0.000380834
     16        1          -0.000773600    0.000002864    0.000131772
     17        1           0.000238769    0.000000912   -0.000003636
     18        1           0.000412690   -0.000004055   -0.000075457
 -------------------------------------------------------------------
 Cartesian Forces:  Max     0.004257738 RMS     0.001561326

 GradGradGradGradGradGradGradGradGradGradGradGradGradGradGradGradGradGrad
 Berny optimization.
 Using GEDIIS/GDIIS optimizer.
 FormGI is forming the generalized inverse of G from B-inverse, IUseBI=4.
 Internal  Forces:  Max     0.002506436 RMS     0.000677507
 Search for a local minimum.
 Step number   2 out of a maximum of  100
 All quantities printed in internal units (Hartrees-Bohrs-Radians)
 Mixed Optimization -- En-DIIS/RFO-DIIS
 Update second derivatives using D2CorX and points    1    2
 DE= -7.57D-04 DEPred=-6.73D-04 R= 1.13D+00
 TightC=F SS=  1.41D+00  RLast= 1.49D-01 DXNew= 5.0454D-01 4.4735D-01
 Trust test= 1.13D+00 RLast= 1.49D-01 DXMaxT set to 4.47D-01
 ITU=  1  0
 Use linear search instead of GDIIS.
     Eigenvalues ---    0.00353   0.00401   0.00722   0.00930   0.01227
     Eigenvalues ---    0.01649   0.02229   0.04610   0.05448   0.05576
     Eigenvalues ---    0.05829   0.05842   0.05878   0.06759   0.08209
     Eigenvalues ---    0.08764   0.09846   0.11163   0.15728   0.15869
     Eigenvalues ---    0.16000   0.16000   0.16000   0.16000   0.16077
     Eigenvalues ---    0.19209   0.22039   0.23865   0.25000   0.25091
     Eigenvalues ---    0.28754   0.29413   0.29928   0.30146   0.34434
     Eigenvalues ---    0.34779   0.35178   0.35249   0.35273   0.35348
     Eigenvalues ---    0.35406   0.35518   0.40982   0.41850   0.52486
     Eigenvalues ---    0.55475   1.05957   1.07853
 RFO step:  Lambda=-8.48138714D-04 EMin= 3.52784484D-03
 Quartic linear search produced a step of  0.15238.
 Iteration  1 RMS(Cart)=  0.02545268 RMS(Int)=  0.00074601
 Iteration  2 RMS(Cart)=  0.00088483 RMS(Int)=  0.00036134
 Iteration  3 RMS(Cart)=  0.00000052 RMS(Int)=  0.00036134
 Variable       Old X    -DE/DX   Delta X   Delta X   Delta X     New X
                                 (Linear)    (Quad)   (Total)
    R1        2.85695  -0.00044  -0.00453  -0.01636  -0.02089   2.83606
    R2        2.05622   0.00013   0.00091   0.00337   0.00429   2.06050
    R3        2.05621   0.00013   0.00092   0.00339   0.00430   2.06052
    R4        2.05698  -0.00023   0.00066   0.00140   0.00206   2.05904
    R5        2.87306  -0.00013  -0.00313  -0.01063  -0.01376   2.85930
    R6        2.68762   0.00250   0.00092   0.00829   0.00940   2.69702
    R7        2.68758   0.00251   0.00092   0.00831   0.00941   2.69700
    R8        2.05691   0.00008   0.00069   0.00250   0.00319   2.06010
    R9        2.05690   0.00008   0.00070   0.00252   0.00322   2.06013
   R10        2.05844  -0.00053   0.00079   0.00086   0.00165   2.06009
   R11        2.54383   0.00206   0.00090   0.00700   0.00792   2.55174
   R12        2.25008  -0.00148  -0.00098  -0.00474  -0.00572   2.24436
   R13        2.85373  -0.00013  -0.00174  -0.00421  -0.00614   2.84759
   R14        2.85368  -0.00012  -0.00173  -0.00416  -0.00607   2.84761
   R15        2.04972   0.00024  -0.00172  -0.00481  -0.00654   2.04318
   R16        2.06436  -0.00014  -0.00022  -0.00117  -0.00140   2.06296
   R17        2.25008  -0.00148  -0.00098  -0.00474  -0.00571   2.24437
   R18        2.54387   0.00204   0.00090   0.00697   0.00788   2.55175
    A1        1.90830   0.00050  -0.00044   0.00194   0.00150   1.90980
    A2        1.90836   0.00049  -0.00045   0.00186   0.00141   1.90977
    A3        1.90618   0.00011  -0.00011   0.00077   0.00065   1.90684
    A4        1.92014  -0.00058  -0.00055  -0.00664  -0.00720   1.91294
    A5        1.91039  -0.00026   0.00078   0.00106   0.00183   1.91222
    A6        1.91039  -0.00025   0.00078   0.00106   0.00184   1.91222
    A7        1.95786   0.00002   0.00283   0.01077   0.01353   1.97139
    A8        1.85094  -0.00007  -0.00044  -0.00431  -0.00475   1.84620
    A9        1.85099  -0.00007  -0.00045  -0.00436  -0.00480   1.84619
   A10        1.92702   0.00024  -0.00065   0.00226   0.00167   1.92869
   A11        1.92703   0.00024  -0.00066   0.00223   0.00164   1.92867
   A12        1.94787  -0.00039  -0.00055  -0.00705  -0.00781   1.94005
   A13        1.90371   0.00034   0.00014   0.00277   0.00290   1.90662
   A14        1.90374   0.00034   0.00015   0.00274   0.00289   1.90663
   A15        1.94970   0.00069  -0.00034   0.00403   0.00369   1.95339
   A16        1.91175  -0.00038   0.00007  -0.00299  -0.00292   1.90883
   A17        1.89738  -0.00050  -0.00001  -0.00337  -0.00339   1.89399
   A18        1.89733  -0.00050  -0.00001  -0.00335  -0.00337   1.89396
   A19        2.11338  -0.00025  -0.00065   0.00277   0.00136   2.11474
   A20        2.10615  -0.00040   0.00078  -0.00348  -0.00325   2.10290
   A21        2.01026   0.00015  -0.00093   0.00630   0.00348   2.01374
   A22        2.16677   0.00025   0.00018  -0.00249  -0.00283   2.16393
   A23        1.95978   0.00136   0.00310   0.03311   0.03521   1.99499
   A24        1.91464  -0.00012  -0.00051  -0.00323  -0.00354   1.91110
   A25        1.89204  -0.00058  -0.00160  -0.01240  -0.01373   1.87831
   A26        1.91465  -0.00012  -0.00051  -0.00319  -0.00350   1.91115
   A27        1.89211  -0.00058  -0.00161  -0.01250  -0.01383   1.87828
   A28        1.88906  -0.00001   0.00104  -0.00318  -0.00235   1.88671
   A29        2.16678   0.00025   0.00017  -0.00251  -0.00286   2.16392
   A30        2.01027   0.00015  -0.00094   0.00628   0.00345   2.01372
   A31        2.10613  -0.00040   0.00079  -0.00343  -0.00320   2.10293
   A32        2.11338  -0.00025  -0.00064   0.00281   0.00140   2.11478
    D1        1.05177  -0.00005  -0.00066  -0.00314  -0.00380   1.04797
    D2       -1.05323  -0.00031  -0.00120  -0.00933  -0.01059  -1.06382
    D3       -3.12637   0.00021  -0.00013   0.00299   0.00292  -3.12345
    D4       -1.05144   0.00005   0.00057   0.00266   0.00323  -1.04820
    D5        3.12674  -0.00021   0.00003  -0.00352  -0.00356   3.12319
    D6        1.05361   0.00031   0.00109   0.00879   0.00995   1.06356
    D7       -3.14144   0.00000  -0.00004  -0.00021  -0.00026   3.14148
    D8        1.03674  -0.00026  -0.00058  -0.00640  -0.00705   1.02969
    D9       -1.03640   0.00026   0.00048   0.00591   0.00646  -1.02994
   D10       -1.04402   0.00003  -0.00007   0.00051   0.00044  -1.04358
   D11        1.04340  -0.00003   0.00019   0.00015   0.00035   1.04375
   D12        3.14126   0.00000   0.00006   0.00033   0.00040  -3.14153
   D13        1.01637   0.00011   0.00075   0.00347   0.00431   1.02068
   D14        3.10379   0.00005   0.00102   0.00312   0.00422   3.10801
   D15       -1.08153   0.00008   0.00089   0.00330   0.00427  -1.07726
   D16       -3.10448  -0.00005  -0.00087  -0.00239  -0.00334  -3.10782
   D17       -1.01706  -0.00011  -0.00061  -0.00274  -0.00343  -1.02049
   D18        1.08081  -0.00008  -0.00074  -0.00256  -0.00338   1.07742
   D19       -2.70444   0.00020  -0.00253  -0.01644  -0.01898  -2.72343
   D20        1.45387   0.00008  -0.00531  -0.02809  -0.03338   1.42049
   D21       -0.69640  -0.00012  -0.00359  -0.02762  -0.03119  -0.72759
   D22        2.70395  -0.00019   0.00255   0.01666   0.01923   2.72318
   D23       -1.45433  -0.00008   0.00532   0.02827   0.03357  -1.42076
   D24        0.69594   0.00012   0.00361   0.02781   0.03139   0.72734
   D25       -3.09654  -0.00005   0.00740  -0.01286  -0.00571  -3.10225
   D26        0.04076   0.00111   0.00374   0.06961   0.07310   0.11386
   D27        0.61732  -0.00124  -0.00232  -0.09660  -0.09924   0.51808
   D28        2.75114  -0.00055  -0.00123  -0.08039  -0.08173   2.66941
   D29       -1.47258  -0.00097  -0.00121  -0.09328  -0.09436  -1.56694
   D30       -2.52873  -0.00004  -0.00613  -0.01089  -0.01734  -2.54607
   D31       -0.39491   0.00065  -0.00504   0.00531   0.00017  -0.39474
   D32        1.66455   0.00023  -0.00502  -0.00757  -0.01246   1.65209
   D33        2.52848   0.00004   0.00616   0.01084   0.01731   2.54579
   D34       -0.61772   0.00124   0.00233   0.09677   0.09942  -0.51830
   D35        0.39466  -0.00065   0.00508  -0.00535  -0.00017   0.39448
   D36       -2.75154   0.00055   0.00124   0.08058   0.08194  -2.66961
   D37       -1.66485  -0.00023   0.00506   0.00757   0.01250  -1.65235
   D38        1.47214   0.00097   0.00122   0.09350   0.09461   1.56674
   D39       -0.03996  -0.00111  -0.00376  -0.06994  -0.07345  -0.11341
   D40        3.09720   0.00005  -0.00744   0.01274   0.00555   3.10275
         Item               Value     Threshold  Converged?
 Maximum Force            0.002506     0.000450     NO 
 RMS     Force            0.000678     0.000300     NO 
 Maximum Displacement     0.134707     0.001800     NO 
 RMS     Displacement     0.025242     0.001200     NO 
 Predicted change in Energy=-4.841580D-04
 GradGradGradGradGradGradGradGradGradGradGradGradGradGradGradGradGradGrad

                          Input orientation:                          
 ---------------------------------------------------------------------
 Center     Atomic      Atomic             Coordinates (Angstroms)
 Number     Number       Type             X           Y           Z
 ---------------------------------------------------------------------
      1          6           0       -2.365866   -0.000160   -0.933967
      2          6           0       -1.205432    0.000036    0.017728
      3          6           0       -1.632719    0.000436    1.469220
      4          8           0       -0.456762    1.177205   -0.283372
      5          6           0        0.856738    1.265896    0.017011
      6          8           0        1.458891    2.265774   -0.202555
      7          6           0        1.487174    0.000010    0.537363
      8          6           0        0.856648   -1.266014    0.017426
      9          8           0        1.458796   -2.265915   -0.202065
     10          8           0       -0.456912   -1.177383   -0.282727
     11          1           0       -2.971798    0.890860   -0.767112
     12          1           0       -2.971740   -0.891165   -0.766781
     13          1           0       -1.991374   -0.000334   -1.957188
     14          1           0       -2.230901    0.890017    1.667380
     15          1           0       -2.230855   -0.889079    1.667900
     16          1           0       -0.777480    0.000640    2.145237
     17          1           0        2.542763   -0.000035    0.303404
     18          1           0        1.380579    0.000171    1.623817
 ---------------------------------------------------------------------
                    Distance matrix (angstroms):
                    1          2          3          4          5
     1  C    0.000000
     2  C    1.500777   0.000000
     3  C    2.512531   1.513078   0.000000
     4  O    2.335410   1.427199   2.416452   0.000000
     5  C    3.590603   2.419700   3.147649   1.350325   0.000000
     6  O    4.505351   3.504384   4.181464   2.204821   1.187667
     7  C    4.124407   2.742289   3.256086   2.416254   1.506879
     8  C    3.590562   2.419722   3.147785   2.790134   2.531911
     9  O    4.505260   3.504418   4.181747   3.940945   3.589451
    10  O    2.335395   1.427189   2.416422   2.354588   2.790185
    11  H    1.090372   2.128284   2.754482   2.577093   3.925964
    12  H    1.090378   2.128271   2.754565   3.291953   4.463685
    13  H    1.089599   2.125559   3.445128   2.557987   3.689518
    14  H    2.752750   2.136587   1.090157   2.652448   3.521152
    15  H    2.752837   2.136606   1.090173   3.350284   4.111275
    16  H    3.464746   2.170124   1.090153   2.717593   2.966629
    17  H    5.062186   3.759066   4.335179   3.275264   2.127742
    18  H    4.536310   3.044170   3.017261   2.898034   2.111468
                    6          7          8          9         10
     6  O    0.000000
     7  C    2.383687   0.000000
     8  C    3.589515   1.506890   0.000000
     9  O    4.531688   2.383689   1.187669   0.000000
    10  O    3.941073   2.416252   1.350329   2.204846   0.000000
    11  H    4.673342   4.730508   4.463699   5.469430   3.291946
    12  H    5.469470   4.730423   3.925818   4.673167   2.576934
    13  H    4.485345   4.280548   3.689483   4.485197   2.558093
    14  H    4.359349   3.986619   4.111420   5.202748   3.350237
    15  H    5.202492   3.986519   3.521196   4.359583   2.652345
    16  H    3.955290   2.777395   2.966879   3.955759   2.717630
    17  H    2.562159   1.081205   2.127786   2.562167   3.275325
    18  H    2.911137   1.091671   2.111450   2.911204   2.897916
                   11         12         13         14         15
    11  H    0.000000
    12  H    1.782025   0.000000
    13  H    1.780938   1.780945   0.000000
    14  H    2.544736   3.105896   3.739999   0.000000
    15  H    3.105875   2.544914   3.740118   1.779096   0.000000
    16  H    3.753572   3.753657   4.278252   1.769681   1.769675
    17  H    5.687714   5.687632   5.066427   5.043857   5.043776
    18  H    5.045102   5.045009   4.918706   3.719745   3.719565
                   16         17         18
    16  H    0.000000
    17  H    3.796889   0.000000
    18  H    2.220157   1.759023   0.000000
 Stoichiometry    C6H8O4
 Framework group  C1[X(C6H8O4)]
 Deg. of freedom    48
 Full point group                 C1      NOp   1
 Largest Abelian subgroup         C1      NOp   1
 Largest concise Abelian subgroup C1      NOp   1
                         Standard orientation:                         
 ---------------------------------------------------------------------
 Center     Atomic      Atomic             Coordinates (Angstroms)
 Number     Number       Type             X           Y           Z
 ---------------------------------------------------------------------
      1          6           0       -2.325525   -0.000150   -0.901565
      2          6           0       -1.136586   -0.000007    0.014270
      3          6           0       -1.519375    0.000222    1.478127
      4          8           0       -0.397499    1.177226   -0.309413
      5          6           0        0.924552    1.265941   -0.049247
      6          8           0        1.519685    2.265867   -0.286981
      7          6           0        1.570625    0.000026    0.451486
      8          6           0        0.924574   -1.265970   -0.049101
      9          8           0        1.519781   -2.265822   -0.286974
     10          8           0       -0.397539   -1.177362   -0.309015
     11          1           0       -2.926117    0.890826   -0.716200
     12          1           0       -2.925979   -0.891198   -0.716062
     13          1           0       -1.982436   -0.000200   -1.935740
     14          1           0       -2.111265    0.889757    1.694546
     15          1           0       -2.111134   -0.889340    1.694873
     16          1           0       -0.643903    0.000390    2.127728
     17          1           0        2.618582    0.000050    0.185420
     18          1           0        1.497237    0.000068    1.540687
 ---------------------------------------------------------------------
 Rotational constants (GHZ):           1.6204617           1.4947477           0.9595215
 Standard basis: def2TZVP (5D, 7F)
 There are   408 symmetry adapted cartesian basis functions of A   symmetry.
 There are   358 symmetry adapted basis functions of A   symmetry.
   358 basis functions,   574 primitive gaussians,   408 cartesian basis functions
    38 alpha electrons       38 beta electrons
       nuclear repulsion energy       573.1377289124 Hartrees.
 NAtoms=   18 NActive=   18 NUniq=   18 SFac= 1.00D+00 NAtFMM=   60 NAOKFM=F Big=F
 Integral buffers will be    131072 words long.
 Raffenetti 2 integral format.
 Two-electron integral symmetry is turned on.
 One-electron integrals computed using PRISM.
   1 Symmetry operations used in ECPInt.
 ECPInt:  NShTT=   10153 NPrTT=   31120 LenC2=    9875 LenP2D=   23780.
 LDataN:  DoStor=T MaxTD1= 6 Len=  172
 NBasis=   358 RedAO= T EigKep=  1.23D-04  NBF=   358
 NBsUse=   358 1.00D-06 EigRej= -1.00D+00 NBFU=   358
 Initial guess from the checkpoint file:  "/home/svss/projects/Project-Philicity/GS/hydrocarbon/set-1/GS/mol_32_hc/mol_32_hc.chk"
 B after Tr=     0.000000    0.000000    0.000000
         Rot=    1.000000   -0.000019   -0.000995    0.000005 Ang=  -0.11 deg.
 ExpMin= 9.52D-02 ExpMax= 2.70D+04 ExpMxC= 9.22D+02 IAcc=3 IRadAn=         5 AccDes= 0.00D+00
 Harris functional with IExCor= 1009 and IRadAn=       5 diagonalized for initial guess.
 HarFok:  IExCor= 1009 AccDes= 0.00D+00 IRadAn=         5 IDoV= 1 UseB2=F ITyADJ=14
 ICtDFT=  3500011 ScaDFX=  1.000000  1.000000  1.000000  1.000000
 FoFCou: FMM=F IPFlag=           0 FMFlag=      100000 FMFlg1=           0
         NFxFlg=           0 DoJE=T BraDBF=F KetDBF=T FulRan=T
         wScrn=  0.000000 ICntrl=       500 IOpCl=  0 I1Cent=   200000004 NGrid=           0
         NMat0=    1 NMatS0=      1 NMatT0=    0 NMatD0=    1 NMtDS0=    0 NMtDT0=    0
 Petite list used in FoFCou.
 Requested convergence on RMS density matrix=1.00D-08 within 128 cycles.
 Requested convergence on MAX density matrix=1.00D-06.
 Requested convergence on             energy=1.00D-06.
 No special actions if energy rises.
 Integral accuracy reduced to 1.0D-05 until final iterations.
 Initial convergence to 1.0D-05 achieved.  Increase integral accuracy.
 SCF Done:  E(RM062X) =  -534.379506474     A.U. after   13 cycles
            NFock= 13  Conv=0.27D-08     -V/T= 2.0043
   1 Symmetry operations used in ECPInt.
 ECPInt:  NShTT=   10153 NPrTT=   31120 LenC2=    9875 LenP2D=   23780.
 LDataN:  DoStor=T MaxTD1= 7 Len=  274
 Calling FoFJK, ICntrl=      2127 FMM=F ISym2X=0 I1Cent= 0 IOpClX= 0 NMat=1 NMatS=1 NMatT=0.
 ***** Axes restored to original set *****
 -------------------------------------------------------------------
 Center     Atomic                   Forces (Hartrees/Bohr)
 Number     Number              X              Y              Z
 -------------------------------------------------------------------
      1        6          -0.005157520   -0.000003620   -0.002351848
      2        6           0.006310033    0.000001767    0.000989425
      3        6          -0.001274833   -0.000005665    0.002903029
      4        8           0.000139063    0.001046148    0.001273620
      5        6          -0.002505141   -0.005760281   -0.008421444
      6        8           0.001114359    0.004198070    0.002975992
      7        6          -0.002639761   -0.000004281    0.006055341
      8        6          -0.002496424    0.005772995   -0.008436872
      9        8           0.001103733   -0.004197954    0.002983924
     10        8           0.000152957   -0.001060519    0.001267417
     11        1           0.000493003   -0.001034990   -0.000676647
     12        1           0.000494182    0.001038900   -0.000677717
     13        1          -0.000783211   -0.000000749    0.000922102
     14        1           0.000470855   -0.000814670    0.000030214
     15        1           0.000474858    0.000823623    0.000024528
     16        1          -0.000291120    0.000001078   -0.000480474
     17        1           0.002747565   -0.000002751   -0.000156059
     18        1           0.001647403    0.000002900    0.001775470
 -------------------------------------------------------------------
 Cartesian Forces:  Max     0.008436872 RMS     0.002819426

 GradGradGradGradGradGradGradGradGradGradGradGradGradGradGradGradGradGrad
 Berny optimization.
 Using GEDIIS/GDIIS optimizer.
 FormGI is forming the generalized inverse of G from B-inverse, IUseBI=4.
 Internal  Forces:  Max     0.005596202 RMS     0.001282823
 Search for a local minimum.
 Step number   3 out of a maximum of  100
 All quantities printed in internal units (Hartrees-Bohrs-Radians)
 Mixed Optimization -- RFO/linear search
 Update second derivatives using D2CorX and points    1    3    2
 DE=  1.99D-04 DEPred=-4.84D-04 R=-4.11D-01
 Trust test=-4.11D-01 RLast= 2.67D-01 DXMaxT set to 2.24D-01
 ITU= -1  1  0
 Use linear search instead of GDIIS.
     Eigenvalues ---    0.00353   0.00401   0.00523   0.00944   0.01664
     Eigenvalues ---    0.01684   0.03724   0.05319   0.05540   0.05676
     Eigenvalues ---    0.05831   0.05856   0.05886   0.06960   0.08501
     Eigenvalues ---    0.08843   0.10150   0.11452   0.15732   0.15754
     Eigenvalues ---    0.16000   0.16000   0.16000   0.16026   0.16086
     Eigenvalues ---    0.19202   0.23048   0.23935   0.24951   0.25083
     Eigenvalues ---    0.29306   0.29463   0.30242   0.31077   0.34532
     Eigenvalues ---    0.35016   0.35236   0.35273   0.35281   0.35357
     Eigenvalues ---    0.35406   0.36208   0.40471   0.40982   0.52610
     Eigenvalues ---    0.55193   1.07676   1.07853
 RFO step:  Lambda=-3.43057384D-04 EMin= 3.52784355D-03
 Quartic linear search produced a step of -0.59485.
 Iteration  1 RMS(Cart)=  0.01406434 RMS(Int)=  0.00042104
 Iteration  2 RMS(Cart)=  0.00032322 RMS(Int)=  0.00021504
 Iteration  3 RMS(Cart)=  0.00000004 RMS(Int)=  0.00021504
 Variable       Old X    -DE/DX   Delta X   Delta X   Delta X     New X
                                 (Linear)    (Quad)   (Total)
    R1        2.83606   0.00560   0.01243  -0.00076   0.01167   2.84772
    R2        2.06050  -0.00122  -0.00255   0.00037  -0.00218   2.05832
    R3        2.06052  -0.00123  -0.00256   0.00037  -0.00219   2.05832
    R4        2.05904  -0.00113  -0.00123  -0.00102  -0.00225   2.05679
    R5        2.85930   0.00255   0.00819  -0.00162   0.00657   2.86587
    R6        2.69702  -0.00018  -0.00559   0.00706   0.00128   2.69830
    R7        2.69700  -0.00017  -0.00560   0.00709   0.00130   2.69830
    R8        2.06010  -0.00092  -0.00190   0.00023  -0.00167   2.05843
    R9        2.06013  -0.00093  -0.00192   0.00023  -0.00169   2.05844
   R10        2.06009  -0.00053  -0.00098  -0.00106  -0.00204   2.05805
   R11        2.55174  -0.00093  -0.00471   0.00462  -0.00011   2.55164
[...]
 516,0.3082221,-0.1147013,0.3596544,-0.808857,-0.3434355,-0.0060001,-0.
 4908565,-1.2022068,0.0751233,0.0170688,0.1364392,-0.3654939,-0.1730541
 ,-0.0000301,-0.10072,-0.0000316,-0.3361201,0.0000652,-0.1243323,0.0000
 802,-0.0291194,1.8415055,-0.6617129,0.152675,-0.4061769,1.5096453,0.20
 47551,0.3084304,0.1141836,0.3595235,-0.8088023,0.3434125,-0.0061528,0.
 4908284,-1.2023463,-0.0747678,0.0168578,-0.1361015,-0.3654074,-1.61785
 31,0.6893597,-0.0626768,0.2167399,-0.7977442,-0.0614869,-0.2382538,0.0
 525086,-0.3898663,0.0234623,0.0420272,-0.0025575,0.0763792,-0.0160811,
 -0.0249219,0.0133265,-0.0493299,0.0585772,0.0234537,-0.042031,-0.00253
 87,-0.0763769,-0.0160437,0.024952,0.0133602,0.049359,0.0585472,0.03915
 93,0.0000118,0.0511288,0.0000048,0.0863747,-0.000029,0.0188072,-0.0000
 276,-0.0494748,0.028051,0.059695,0.0246697,0.0719404,-0.0117445,-0.022
 3441,0.0143898,-0.0004447,0.0666523,0.0280447,-0.0596865,0.0246936,-0.
 0719359,-0.011728,0.0223733,0.014418,0.000474,0.0666422,-0.0537498,-0.
 0000139,-0.087677,-0.0000103,0.0722244,-0.0000121,-0.0686541,-0.000012
 9,-0.0044963,0.0546516,0.0000007,0.0053632,0.0000092,0.0414904,0.00001
 39,0.0459771,0.0000125,0.1094746,0.1281665,0.0000087,0.0487706,0.00000
 52,0.0368346,0.0000002,0.0351721,-0.0000003,0.0418703\Polar=87.6782339
 ,0.0002837,81.6169617,2.3841934,-0.0038658,63.5371066\Quadrupole=5.317
 7136,-10.9659128,5.6481992,-0.0003338,0.771239,0.0033471\PG=C01 [X(C6H
 8O4)]\NImag=0\\0.54581725,-0.00000791,0.61081720,-0.05170450,-0.000007
 11,0.56699341,-0.15106984,-0.00001269,-0.07637081,0.56109803,-0.000009
 58,-0.07052582,-0.00001174,0.00000655,0.42146540,-0.06082804,-0.000012
 30,-0.14182305,0.03445946,0.00002277,0.55271446,0.00992054,-0.00000553
 ,-0.02704925,-0.08828239,0.00000293,0.01303107,0.58770483,-0.00000009,
 0.00367618,-0.00000539,0.00000543,-0.06772193,-0.00002577,0.00000795,0
 .60521361,0.00031659,-0.00000625,-0.02802756,0.02498443,-0.00002623,-0
 .19891715,0.03389184,-0.00002091,0.50194126,-0.03204770,-0.04260743,0.
 00768391,-0.11803647,-0.02212766,0.01411788,-0.01348948,-0.02593215,0.
 00621354,0.49156846,-0.01406014,-0.01031397,-0.00022801,-0.03192134,-0
 .13845336,0.04067465,-0.01340359,-0.01313670,0.00847801,0.10872558,0.3
 3842253,-0.01395193,-0.01739917,0.00738463,0.00888348,0.03959662,-0.08
 464239,0.02617061,0.03255742,-0.00752579,0.06854252,-0.07436667,0.1251
 6068,0.00199262,0.00452734,-0.00076378,-0.03232520,-0.06102136,0.00409
 815,0.00411024,0.00893438,0.00080087,-0.23707017,0.01364889,-0.0586971
 6,0.61889908,-0.00188569,-0.00382957,0.00166594,-0.03896404,-0.0061159
 1,-0.01176327,0.00054653,0.00052147,-0.00079551,0.04858092,-0.10523049
 ,0.03576390,0.23326754,0.95627795,-0.00028892,0.00076574,-0.00016529,0
 .00482142,-0.02366638,-0.00335517,0.00418006,0.00532002,0.00127150,-0.
 06430241,0.02691633,-0.07681509,0.04677491,-0.12760136,0.27404427,-0.0
 0150717,-0.00356491,0.00158440,0.00058232,0.01999330,-0.00763205,-0.00
 126450,-0.00288307,-0.00044339,-0.07697121,-0.07947084,-0.00406199,-0.
 23899778,-0.29167901,0.03131569,0.30057683,-0.00079590,-0.00141099,0.0
 0083046,0.00527076,0.01192400,-0.00173489,-0.00123901,-0.00212550,-0.0
 0010675,-0.06910202,-0.01270992,-0.01330440,-0.27445933,-0.66604631,0.
 07540382,0.35899259,0.72838772,0.00018297,-0.00020128,-0.00007320,-0.0
 0196238,0.00536938,0.00426414,-0.00095270,-0.00149033,-0.00009618,-0.0
 0967490,-0.01681826,0.01766667,0.02653140,0.06986512,-0.08821030,-0.01
 727646,-0.07685883,0.04597347,-0.00010205,0.00000007,0.00033521,-0.000
 03270,-0.00000027,-0.00184353,-0.00060834,0.00000046,0.00217083,-0.024
 49575,0.02596572,-0.02012538,-0.11716446,0.04187960,-0.01905774,0.0156
 6078,-0.02092896,0.00602201,0.60247217,0.00000001,0.00069011,-0.000000
 14,-0.00000014,-0.00114848,0.00000007,-0.00000009,0.00012375,-0.000000
 12,0.00359269,0.00561652,0.00265140,0.04022211,-0.15405900,0.02761668,
 0.00488103,-0.04977267,0.02068223,-0.00000985,0.48660387,-0.00006554,-
 0.00000012,0.00003155,-0.00068269,0.00000020,-0.00083604,-0.00056259,-
 0.00000006,-0.00011287,-0.01382346,0.00840603,0.01386247,-0.01452584,0
 .02567139,-0.10116016,-0.00134651,0.01226385,0.02055449,-0.02031784,0.
 00000546,0.50921274,0.00199228,-0.00452772,-0.00076203,-0.03231977,0.0
 6102422,0.00407418,0.00410964,-0.00893407,0.00080439,-0.02480066,-0.02
 117697,-0.00771762,0.04766580,0.00251015,0.02879706,-0.00947532,0.0083
 6880,-0.00853679,-0.11716950,-0.04022979,-0.01450994,0.61887542,0.0018
 8529,-0.00383042,-0.00166447,0.03896750,-0.00610832,0.01176520,-0.0005
 4510,0.00052036,0.00079585,-0.00748656,0.00426514,0.00035904,-0.002503
 97,-0.03493075,-0.00353795,0.00070923,0.00353635,-0.00073336,-0.041889
 43,-0.15407403,-0.02564642,-0.23322967,0.95640235,-0.00028947,-0.00076
 469,-0.00016448,0.00480707,0.02366856,-0.00336792,0.00418018,-0.005320
 06,0.00127332,-0.01056833,-0.00619789,-0.00307508,0.02879925,0.0035561
 3,0.01312849,-0.00606358,0.00978599,-0.00424509,-0.01904297,-0.0275936
 3,-0.10113815,0.04688373,0.12732030,0.27394516,-0.00150687,0.00356551,
 0.00158291,0.00058119,-0.01999542,-0.00762432,-0.00126422,0.00288274,-
 0.00044448,0.00736498,0.00627518,0.00226225,-0.00947596,-0.00071085,-0
 .00606368,0.00266024,-0.00005453,0.00135726,0.01566151,-0.00488598,-0.
 00134540,-0.23896328,0.29166397,0.03119277,0.30053133,0.00079596,-0.00
 141148,-0.00083002,-0.00527103,0.01192406,0.00173240,0.00123858,-0.002
 12507,0.00010753,0.00267277,-0.00174042,0.00059343,-0.00837148,0.00353
 316,-0.00978872,0.00005446,-0.00750381,0.00397033,0.02092708,-0.049787
 54,-0.01223517,0.27444252,-0.66613436,-0.07517132,-0.35897128,0.728490
 03,0.00018260,0.00020194,-0.00007288,-0.00196071,-0.00537268,0.0042650
 8,-0.00095311,0.00149119,-0.00009681,0.00314702,0.00069593,0.00085285,
 -0.00853351,0.00073068,-0.00424140,0.00135704,-0.00396670,0.00169066,0
 .00601245,-0.02065323,0.02056841,0.02641550,-0.06963320,-0.08815232,-0
 .01712431,0.07658160,0.04591184,-0.03204392,0.04261143,0.00766699,-0.1
 1802984,0.02212817,0.01410588,-0.01348739,0.02593442,0.00620298,0.0313
 8589,0.00212213,-0.00074917,-0.02479910,0.00748408,-0.01057059,0.00736
 447,-0.00267196,0.00314794,-0.02449693,-0.00359642,-0.01382399,-0.2370
 7803,-0.04859517,-0.06429088,-0.07696061,0.06910170,-0.00970337,0.4915
 5400,0.01405573,-0.01031042,0.00023452,0.03191979,-0.13848189,-0.04065
 377,0.01341406,-0.01315532,-0.00847609,-0.00212813,-0.06569243,-0.0071
 0242,0.02117582,0.00426588,0.00619519,-0.00627479,-0.00174044,-0.00069
 502,-0.02597176,0.00561388,-0.00840274,-0.01366183,-0.10525093,-0.0269
 0068,0.07947290,-0.01270766,0.01683288,-0.10870617,0.33848801,-0.01395
 657,0.01740732,0.00737760,0.00886724,-0.03957547,-0.08461180,0.0261634
 5,-0.03255664,-0.00751009,-0.00074750,0.00713172,0.00854962,-0.0077266
 4,-0.00036143,-0.00307754,0.00226481,-0.00059267,0.00085346,-0.0201148
 7,-0.00264615,0.01386667,-0.05870077,-0.03575044,-0.07679509,-0.004094
 83,0.01331846,0.01765472,0.06860020,0.07427634,0.12510879,-0.13108501,
 0.12269152,0.02334994,-0.01284992,0.02153322,0.00761092,0.00044206,-0.
 00002659,0.00104669,0.00198582,-0.00008528,0.00019754,-0.00074653,0.00
 001063,-0.00019294,0.00024558,-0.00007156,0.00011650,0.00008697,-0.000
 15814,0.00008291,0.00248824,0.00089766,0.00028494,-0.00124235,0.000593
 54,-0.00001858,-0.00726240,0.00119280,-0.00385828,0.14082457,0.1271355
 0,-0.23374381,-0.03723089,-0.00159413,-0.00183795,-0.00068886,-0.00017
 137,-0.00006806,-0.00022938,-0.00063073,0.00041026,0.00003731,0.000127
 44,0.00032923,0.00006626,0.00005230,-0.00001234,0.00001488,0.00007655,
 -0.00006117,-0.00000885,-0.00102437,0.00054743,-0.00023134,0.00019153,
 -0.00017106,0.00004255,0.00048874,0.00069647,0.00024329,-0.13775853,0.
 25001142,0.02586258,-0.04048687,-0.05633711,-0.00842155,0.01746032,0.0
 0327073,0.00032278,0.00014368,0.00044734,0.00125958,0.00039742,0.00017
 102,-0.00024672,0.00000344,-0.00010383,0.00006946,0.00002159,0.0000036
 9,-0.00000715,-0.00006695,-0.00002733,0.00068140,0.00062046,0.00046665
 ,-0.00069031,0.00038709,-0.00005552,-0.00591079,0.00091714,-0.00144001
 ,-0.02497147,0.04174579,0.05728176,-0.13110176,-0.12268903,0.02340176,
 -0.01285114,-0.02152938,0.00761967,0.00044209,0.00002694,0.00104669,-0
 .00726258,-0.00119387,-0.00385773,0.00248833,-0.00089766,0.00028518,-0
 .00124240,-0.00059348,-0.00001830,0.00008697,0.00015816,0.00008284,-0.
 00074651,-0.00001063,-0.00019297,0.00024557,0.00007160,0.00011647,0.00
 198582,0.00008527,0.00019752,0.01219079,0.01505133,-0.00367714,0.14084
 296,-0.12713198,-0.23369586,0.03730061,0.00159156,-0.00184334,0.000690
 42,0.00017148,-0.00006803,0.00022953,-0.00049064,0.00069612,-0.0002438
 6,0.00102452,0.00054726,0.00023126,-0.00019174,-0.00017118,-0.00004250
 ,-0.00007657,-0.00006114,0.00000886,-0.00012746,0.00032919,-0.00006642
 ,-0.00005229,-0.00001235,-0.00001488,0.00063109,0.00041005,-0.00003741
 ,-0.01505484,-0.01808650,0.00434432,0.13775582,0.24995941,0.02591646,0
 .04055651,-0.05636840,-0.00842327,-0.01745769,0.00327749,0.00032267,-0
 .00014348,0.00044727,-0.00591076,-0.00091765,-0.00143947,0.00068100,-0
 .00062052,0.00046669,-0.00069028,-0.00038702,-0.00005532,-0.00000712,0
 .00006697,-0.00002735,-0.00024666,-0.00000360,-0.00010382,0.00006948,-
 0.00002158,0.00000371,0.00125928,-0.00039758,0.00017120,-0.00367137,-0
 .00433702,-0.00055006,-0.02502966,-0.04182164,0.05731538,-0.07883891,0
 .00001919,0.09043610,0.00722010,-0.00000610,-0.02880636,-0.00438573,-0
 .00000033,-0.00237490,0.00227518,0.00136679,0.00109178,-0.00047520,0.0
 0003210,-0.00012590,0.00021158,0.00017186,-0.00001780,0.00009838,0.,-0
 .00001121,-0.00047516,-0.00003212,-0.00012590,0.00021157,-0.00017188,-
 0.00001774,0.00227504,-0.00136647,0.00109233,-0.00560991,-0.00181542,0
 .01603803,-0.00561026,0.00182232,0.01603899,0.08261532,0.00001803,-0.0
 4666834,-0.00005308,0.00000137,-0.00225290,-0.00000327,-0.00000069,0.0
 0007025,-0.00000016,0.00050497,-0.00000696,-0.00024958,-0.00049273,0.0
 0011530,-0.00021130,0.00016549,-0.00002023,0.00011608,0.00000001,-0.00
 005769,0.,0.00049250,0.00011539,0.00021128,-0.00016543,-0.00002031,-0.
 00011609,-0.00050459,-0.00000703,0.00025047,0.00705129,0.00123611,-0.0
 2533874,-0.00705067,0.00124652,0.02533621,-0.00001964,0.04525914,0.084
 63996,-0.00005288,-0.29566079,0.00816377,-0.00000448,-0.02344056,-0.00
 435971,-0.00000012,-0.00116834,0.00132506,0.00075961,0.00239721,-0.000
 66728,-0.00013693,0.00001738,0.00018843,0.00015628,-0.00003860,0.00010
 299,0.,-0.00008976,-0.00066747,0.00013693,0.00001725,0.00018850,-0.000
 15631,-0.00003849,0.00132525,-0.00075875,0.00239739,0.00043824,0.00029
 366,-0.00236679,0.00044105,-0.00029513,-0.00237686,-0.09156365,0.00005
 843,0.32086858,-0.00014943,-0.00008448,-0.00069274,-0.00663888,0.00725
 483,0.00059604,-0.12922138,0.12315753,0.02891169,0.00103265,-0.0007073
 7,-0.00064544,-0.00108092,0.00075947,-0.00024885,0.00024068,-0.0002854
 0,0.00000237,-0.00026003,0.00004343,0.00007913,0.00119748,-0.00039802,
 -0.00012762,-0.00030238,0.00025236,-0.00006566,-0.00020421,0.00063819,
 0.00232217,0.00045758,-0.00015605,-0.00045793,0.00001111,-0.00016290,-
 0.00000144,-0.00007277,-0.00018354,0.00001393,0.13653932,0.00002727,-0
 .00007099,0.00036609,-0.00104226,-0.00192251,0.00116828,0.12453929,-0.
 23296728,-0.04377913,-0.00049827,0.00066491,0.00015259,0.00022559,0.00
 001626,0.00005328,-0.00000321,0.00002189,-0.00002334,-0.00005591,0.000
 05805,-0.00001907,-0.00083089,0.00001764,-0.00014116,0.00018279,-0.000
 04766,-0.00001543,0.00030775,0.00163423,0.00005063,-0.00021878,0.00046
 247,-0.00005340,0.00013562,-0.00000440,-0.00009140,-0.00016163,0.00020
 843,0.00002988,-0.13572079,0.24878360,0.00009377,-0.00008231,0.0011425
 2,0.01616958,-0.02594090,-0.00271818,0.02713679,-0.03951457,-0.0578785
 4,-0.00211734,0.00003952,0.00123771,0.00109610,0.00015102,0.00040493,-
 0.00025695,-0.00017116,-0.00011800,-0.00027112,0.00007527,-0.00003461,
 -0.00363911,0.00019571,-0.00226495,0.00119362,-0.00092269,0.00053368,0
 .00681972,-0.00296103,-0.00648162,-0.00046809,0.00017961,-0.00084717,-
 0.00003877,0.00000888,-0.00006076,-0.00001614,0.00025599,0.00026755,-0
 .03145506,0.04660511,0.06203929,-0.00014946,0.00008424,-0.00069278,-0.
 00663920,-0.00725433,0.00059879,-0.12923409,-0.12315197,0.02896187,-0.
 00020430,-0.00063718,0.00232248,0.00119759,0.00039786,-0.00012777,-0.0
 0030242,-0.00025237,-0.00006556,-0.00026003,-0.00004337,0.00007913,-0.
 00108099,-0.00075953,-0.00024855,0.00024069,0.00028541,0.00000225,0.00
 103271,0.00070707,-0.00064573,0.00001111,0.00016290,-0.00000152,0.0004
 5761,0.00015588,-0.00045800,-0.00007275,0.00018355,0.00001386,0.011412
 87,0.01483875,-0.00472389,0.13655317,-0.00002724,-0.00007112,-0.000365
 57,0.00104884,-0.00191254,-0.00116871,-0.12453449,-0.23292294,0.043846
 08,-0.00030498,0.00163538,-0.00005393,0.00082939,0.00001754,0.00014028
 ,-0.00018231,-0.00004727,0.00001566,0.00005582,0.00005803,0.00001903,-
 0.00022513,0.00001626,-0.00005311,0.00000311,0.00002194,0.00002329,0.0
 0049748,0.00066479,-0.00015239,-0.00013563,-0.00000435,0.00009137,0.00
 021861,0.00046241,0.00005292,0.00016164,0.00020830,-0.00002985,-0.0148
 4204,-0.01818529,0.00519575,0.13571458,0.24873417,0.00009378,0.0000827
 8,0.00114259,0.01617041,0.02593976,-0.00272775,0.02718727,0.03958153,-
 0.05791092,0.00682002,0.00295738,-0.00648281,-0.00363947,-0.00019635,-
 0.00226485,0.00119377,0.00092284,0.00053329,-0.00027115,-0.00007529,-0
 .00003458,0.00109620,-0.00015095,0.00040501,-0.00025694,0.00017112,-0.
 00011808,-0.00211752,-0.00003913,0.00123781,-0.00003871,-0.00000891,-0
 .00006079,-0.00046820,-0.00018008,-0.00084712,-0.00001623,-0.00025598,
 0.00026766,-0.00471837,-0.00518831,0.00036326,-0.03151032,-0.04667630,
 0.06207545,0.00001590,0.00000033,0.00165738,0.00777152,0.00000131,0.00
 792996,-0.22501047,-0.00002159,-0.13212630,0.00155234,0.00104533,-0.00
 113430,0.00008095,-0.00024923,-0.00069865,0.00004511,0.00025395,0.0000
 8600,-0.00245239,0.00000012,0.00019187,0.00008101,0.00024898,-0.000698
 81,0.00004508,-0.00025393,0.00008611,0.00155223,-0.00104588,-0.0011338
 4,0.00007166,-0.00017419,0.00017944,0.00007169,0.00017428,0.00017938,0
 .00055064,0.00000007,0.00034587,-0.01310472,-0.00169489,-0.00963260,-0
 .01310555,0.00169189,-0.00963403,0.24435045,0.00000074,0.00036046,-0.0
 0000116,-0.00000620,-0.00296211,-0.00000348,-0.00002097,-0.04606358,-0
 .00001606,0.00071611,-0.00004193,-0.00034535,-0.00035307,0.00050704,0.
 00055942,0.00003231,-0.00033638,-0.00009299,0.00000009,0.00010256,0.,0
 .00035285,0.00050623,-0.00056016,-0.00003215,-0.00033625,0.00009318,-0
 .00071580,-0.00004121,0.00034676,-0.00034092,0.00023320,-0.00014403,0.
 00034097,0.00023319,0.00014398,-0.00000030,0.00063093,-0.00000035,0.02
 040503,0.00131276,0.01668674,-0.02040186,0.00130691,-0.01668518,0.0000
 2296,0.04400484,0.00390545,-0.00000127,-0.00550520,-0.03058483,-0.0000
 0257,-0.01990281,-0.12875266,-0.00001612,-0.14447805,0.00093318,-0.001
 20586,0.00344552,-0.00056630,0.00139413,-0.00134585,0.00044064,-0.0002
 5251,0.00012436,0.00000368,0.00000001,0.00008419,-0.00056652,-0.001394
 87,-0.00134512,0.00044069,0.00025265,0.00012423,0.00093352,0.00120720,
 0.00344488,0.00010040,0.00007873,0.00018444,0.00010027,-0.00007875,0.0
 0018442,-0.00162879,-0.00000029,-0.00112897,0.00611809,0.00080134,0.00
 411679,0.00612603,-0.00080055,0.00412361,0.14227389,0.00001864,0.15676
 596,0.00002554,0.00000002,0.00005772,0.00084120,-0.00000012,-0.0001423
 7,0.00016759,0.00000001,0.00003258,-0.00011976,0.00231159,-0.00059382,
 -0.01453901,-0.00019591,0.00253847,0.00228634,-0.00217107,-0.00036268,
 -0.31042496,0.00002530,0.07570109,-0.01454080,0.00019818,0.00253910,0.
 00228667,0.00217092,-0.00036368,-0.00012011,-0.00231206,-0.00059313,-0
 .00000006,0.00002017,-0.00000336,-0.00000006,-0.00002017,-0.00000335,0
 .00000683,0.,0.00000848,-0.00000143,0.00000547,0.00000630,-0.00000143,
 -0.00000547,0.00000630,-0.00007260,0.,-0.00000250,0.33393859,0.,0.0003
 1515,-0.00000004,0.00000005,-0.00321908,0.00000052,-0.00000003,0.00037
 231,-0.00000020,0.00382488,-0.00328284,0.00389286,0.02766384,0.0028744
 0,-0.01073039,-0.00215028,0.00058999,0.00146145,0.00002566,-0.04903480
 ,-0.00000484,-0.02766847,0.00288030,0.01072991,0.00215023,0.00058980,-
 0.00146186,-0.00382591,-0.00328502,-0.00389202,-0.00010503,0.00004063,
 -0.00001383,0.00010503,0.00004062,0.00001381,0.,-0.00005580,0.00000002
 ,-0.00008370,0.00001030,0.00004551,0.00008375,0.00001027,-0.00004546,0
 .00000008,-0.00008250,0.00000009,-0.00002681,0.05155213,-0.00006869,-0
 .00000004,0.00013676,0.00095042,0.00000054,-0.00068983,-0.00014962,-0.
 00000020,-0.00063507,-0.00245796,0.00252609,-0.00134262,-0.01393537,0.
 00090010,0.00240186,0.00037926,-0.00166407,-0.00044329,0.07776594,-0.0
 0000499,-0.05995383,-0.01392383,-0.00089940,0.00239766,0.00037843,0.00
 166363,-0.00044333,-0.00245640,-0.00252508,-0.00134004,-0.00000784,0.0
 0002377,-0.00002690,-0.00000789,-0.00002380,-0.00002690,0.00001369,0.0
 0000002,0.00004158,0.00014196,0.00003320,0.00013399,0.00014193,-0.0000
 3316,0.00013402,0.00045266,0.00000007,0.00036312,-0.07877506,0.0000061
 7,0.06758754,-0.00016200,0.00000006,0.00027956,0.00098101,-0.00000031,
 -0.00136533,-0.00064899,0.,0.00000407,-0.00266723,0.00119537,0.0020638
 8,0.00023973,-0.00088650,-0.01703533,-0.00011311,-0.00043234,0.0014211
 3,-0.03659964,0.00000092,0.00479806,0.00024015,0.00087938,-0.01703794,
 -0.00011317,0.00043272,0.00142124,-0.00266763,-0.00119453,0.00206446,-
 0.00000821,0.00001835,-0.00002534,-0.00000821,-0.00001836,-0.00002533,
 0.00007605,0.,0.00006272,0.00014447,-0.00003589,0.00010319,0.00014447,
 0.00003592,0.00010317,-0.00244284,0.00000022,0.00072576,0.00026746,0.0
 0000669,0.03155837,0.04333769,0.,0.00002371,-0.00000001,-0.00000002,-0
 .00080733,0.00000002,0.00000005,-0.00014351,-0.00000020,0.00269065,-0.
 00110184,-0.00253920,-0.00444494,0.00120654,0.03226783,0.00151944,-0.0
 0256291,-0.00453921,0.00000171,-0.04081026,-0.00005752,0.00444534,0.00
 119216,-0.03227170,-0.00152001,-0.00256103,0.00454084,-0.00269096,-0.0
 0110096,0.00253964,-0.00001536,0.00001803,-0.00002879,0.00001536,0.000
 01804,0.00002878,0.,-0.00000113,0.,0.00011346,0.00000759,0.00015354,-0
 .00011337,0.00000751,-0.00015348,0.00000043,0.00066585,0.,-0.00000006,
 -0.00031585,-0.00000285,-0.00000172,0.04626539,-0.00004050,0.,-0.00001
 112,0.00012895,-0.00000002,-0.00075923,0.00019294,-0.00000017,-0.00102
 333,-0.00044005,0.00075165,0.00059487,0.00052038,0.00177353,-0.0109956
 5,-0.00102229,-0.00034583,0.00161576,0.00864578,-0.00005758,-0.3147658
 4,0.00051829,-0.00177881,-0.01098153,-0.00102162,0.00034755,0.00161367
 ,-0.00043906,-0.00075096,0.00059407,-0.00000079,0.00000939,-0.00001010
 ,-0.00000080,-0.00000940,-0.00001011,-0.00000630,0.,0.00003455,0.00022
 774,0.00005085,0.00016412,0.00022778,-0.00005080,0.00016420,0.00167599
 ,-0.00000003,0.00074448,-0.00005010,-0.00000168,-0.00829473,-0.0091163
 4,0.00006230,0.34132591\\-0.00001684,-0.00000004,-0.00001155,0.0000416
 8,0.00000220,0.00000570,-0.00000195,-0.00000067,0.00000332,-0.00004069
 ,0.00001234,-0.00001328,0.00004520,-0.00001951,0.00002248,-0.00001747,
 0.00000960,-0.00000838,-0.00003977,0.00000100,-0.00001258,0.00004000,0
 .00001860,0.00002900,-0.00001565,-0.00000959,-0.00001076,-0.00003791,-
 0.00001371,-0.00001512,0.00000977,-0.00000181,0.00000279,0.00000973,0.
 00000182,0.00000278,0.00000626,-0.00000004,-0.00000031,-0.00000354,0.0
 0000097,-0.00000371,-0.00000355,-0.00000081,-0.00000369,0.00000223,0.0
 0000011,0.00000360,0.00001240,0.00000028,0.00000079,0.00001009,-0.0000
 0073,0.00000892\\\@
 The archive entry for this job was punched.


 YOU CAN WIPE THE SLATE CLEAN, BUT YOU'LL STILL
 HAVE TO EAT A LITTLE CHALK DUST.
 Job cpu time:       0 days  1 hours 39 minutes  9.1 seconds.
 Elapsed time:       0 days  0 hours 12 minutes 30.4 seconds.
 File lengths (MBytes):  RWF=    254 Int=      0 D2E=      0 Chk=     12 Scr=      2
 Normal termination of Gaussian 16 at Mon Jun 20 20:15:10 2022.
