 Entering Gaussian System, Link 0=/opt/apps/Gaussian/G16C/g16/g16
 Input=/home/svss/projects/Project-Philicity/GS/hydrocarbon/set-1/GS/mol_34_hc/mol_34_hc.com
 Output=/home/svss/projects/Project-Philicity/GS/hydrocarbon/set-1/GS/mol_34_hc/mol_34_hc.log
 Initial command:
 /opt/apps/Gaussian/G16C/g16/l1.exe "/home/svss/projects/Project-Philicity/GS/hydrocarbon/set-1/Gau-296139.inp" -scrdir="/home/svss/projects/Project-Philicity/GS/hydrocarbon/set-1/"
 Entering Link 1 = /opt/apps/Gaussian/G16C/g16/l1.exe PID=    296140.
  
 Copyright (c) 1988-2019, Gaussian, Inc.  All Rights Reserved.
  
 This is part of the Gaussian(R) 16 program.  It is based on
 the Gaussian(R) 09 system (copyright 2009, Gaussian, Inc.),
 the Gaussian(R) 03 system (copyright 2003, Gaussian, Inc.),
 the Gaussian(R) 98 system (copyright 1998, Gaussian, Inc.),
 the Gaussian(R) 94 system (copyright 1995, Gaussian, Inc.),
 the Gaussian 92(TM) system (copyright 1992, Gaussian, Inc.),
 the Gaussian 90(TM) system (copyright 1990, Gaussian, Inc.),
 the Gaussian 88(TM) system (copyright 1988, Gaussian, Inc.),
 the Gaussian 86(TM) system (copyright 1986, Carnegie Mellon
 University), and the Gaussian 82(TM) system (copyright 1983,
 Carnegie Mellon University). Gaussian is a federally registered
 trademark of Gaussian, Inc.
  
 This software contains proprietary and confidential information,
 including trade secrets, belonging to Gaussian, Inc.
  
 This software is provided under written license and may be
 used, copied, transmitted, or stored only in accord with that
 written license.
  
 The following legend is applicable only to US Government
 contracts under FAR:
  
                    RESTRICTED RIGHTS LEGEND
  
 Use, reproduction and disclosure by the US Government is
 subject to restrictions as set forth in subparagraphs (a)
 and (c) of the Commercial Computer Software - Restricted
 Rights clause in FAR 52.227-19.
  
 Gaussian, Inc.
 340 Quinnipiac St., Bldg. 40, Wallingford CT 06492
  
  
 ---------------------------------------------------------------
 Warning -- This program may not be used in any manner that
 competes with the business of Gaussian, Inc. or will provide
 assistance to any competitor of Gaussian, Inc.  The licensee
 of this program is prohibited from giving any competitor of
 Gaussian, Inc. access to this program.  By using this program,
 the user acknowledges that Gaussian, Inc. is engaged in the
 business of creating and licensing software in the field of
 computational chemistry and represents and warrants to the
 licensee that it is not a competitor of Gaussian, Inc. and that
 it will not use this program in any manner prohibited above.
 ---------------------------------------------------------------
  

 Cite this work as:
 Gaussian 16, Revision C.01,
 M. J. Frisch, G. W. Trucks, H. B. Schlegel, G. E. Scuseria, 
 M. A. Robb, J. R. Cheeseman, G. Scalmani, V. Barone, 
 G. A. Petersson, H. Nakatsuji, X. Li, M. Caricato, A. V. Marenich, 
 J. Bloino, B. G. Janesko, R. Gomperts, B. Mennucci, H. P. Hratchian, 
 J. V. Ortiz, A. F. Izmaylov, J. L. Sonnenberg, D. Williams-Young, 
 F. Ding, F. Lipparini, F. Egidi, J. Goings, B. Peng, A. Petrone, 
 T. Henderson, D. Ranasinghe, V. G. Zakrzewski, J. Gao, N. Rega, 
 G. Zheng, W. Liang, M. Hada, M. Ehara, K. Toyota, R. Fukuda, 
 J. Hasegawa, M. Ishida, T. Nakajima, Y. Honda, O. Kitao, H. Nakai, 
 T. Vreven, K. Throssell, J. A. Montgomery, Jr., J. E. Peralta, 
 F. Ogliaro, M. J. Bearpark, J. J. Heyd, E. N. Brothers, K. N. Kudin, 
 V. N. Staroverov, T. A. Keith, R. Kobayashi, J. Normand, 
 K. Raghavachari, A. P. Rendell, J. C. Burant, S. S. Iyengar, 
 J. Tomasi, M. Cossi, J. M. Millam, M. Klene, C. Adamo, R. Cammi, 
 J. W. Ochterski, R. L. Martin, K. Morokuma, O. Farkas, 
 J. B. Foresman, and D. J. Fox, Gaussian, Inc., Wallingford CT, 2019.
 
 ******************************************
 Gaussian 16:  AS64L-G16RevC.01  3-Jul-2019
                20-Jun-2022 
 ******************************************
 %nproc=8
 Will use up to    8 processors via shared memory.
 %mem=96GB
 %chk=/home/svss/projects/Project-Philicity/GS/hydrocarbon/set-1/GS/mol_34_hc/mol
 _34_hc.chk
 -------------------------
 # opt freq M062X/def2tzvp
 -------------------------
 1/18=20,19=15,26=3,38=1/1,3;
 2/9=110,12=2,17=6,18=5,40=1/2;
 3/5=44,7=101,11=2,25=1,30=1,71=1,74=-55/1,2,3;
 4//1;
 5/5=2,38=5/2;
 6/7=2,8=2,9=2,10=2,28=1/1;
 7//1,2,3,16;
 1/18=20,19=15,26=3/3(2);
 2/9=110/2;
 99//99;
 2/9=110/2;
 3/5=44,7=101,11=2,25=1,30=1,71=1,74=-55/1,2,3;
 4/5=5,16=3,69=1/1;
 5/5=2,38=5/2;
 7//1,2,3,16;
 1/18=20,19=15,26=3/3(-5);
 2/9=110/2;
 6/7=2,8=2,9=2,10=2,19=2,28=1/1;
 99/9=1/99;
 ----------------------------------------------------------------------
 converted from /home/svss/projects/Project-Philicity/GS/hydrocarbon/se
 t-1/GS/mol_34_hc/mol_34_hc_cregen_best.xyz
 ----------------------------------------------------------------------
 Symbolic Z-matrix:
 Charge =  0 Multiplicity = 1
 Cl                    0.03527   0.        0. 
 H                    -1.24065   0.        0. 
 

 GradGradGradGradGradGradGradGradGradGradGradGradGradGradGradGradGradGrad
 Berny optimization.
 Initialization pass.
                           ----------------------------
                           !    Initial Parameters    !
                           ! (Angstroms and Degrees)  !
 --------------------------                            --------------------------
 ! Name  Definition              Value          Derivative Info.                !
 --------------------------------------------------------------------------------
 ! R1    R(1,2)                  1.2759         estimate D2E/DX2                !
 --------------------------------------------------------------------------------
 Trust Radius=3.00D-01 FncErr=1.00D-07 GrdErr=1.00D-06 EigMax=2.50D+02 EigMin=1.00D-04
 Number of steps in this run=     20 maximum allowed number of steps=    100.
 GradGradGradGradGradGradGradGradGradGradGradGradGradGradGradGradGradGrad

                          Input orientation:                          
 ---------------------------------------------------------------------
 Center     Atomic      Atomic             Coordinates (Angstroms)
 Number     Number       Type             X           Y           Z
 ---------------------------------------------------------------------
      1         17           0        0.035270    0.000000    0.000000
      2          1           0       -1.240650    0.000000    0.000000
 ---------------------------------------------------------------------
 Stoichiometry    ClH
 Framework group  C*V[C*(HCl)]
 Deg. of freedom     1
 Full point group                 C*V     NOp   4
 Largest Abelian subgroup         C2V     NOp   4
 Largest concise Abelian subgroup C1      NOp   1
                         Standard orientation:                         
 ---------------------------------------------------------------------
 Center     Atomic      Atomic             Coordinates (Angstroms)
 Number     Number       Type             X           Y           Z
 ---------------------------------------------------------------------
      1         17           0        0.000000    0.000000    0.070884
      2          1           0        0.000000    0.000000   -1.205036
 ---------------------------------------------------------------------
 Rotational constants (GHZ):           0.0000000         316.9018968         316.9018968
 Standard basis: def2TZVP (5D, 7F)
 There are    23 symmetry adapted cartesian basis functions of A1  symmetry.
 There are     3 symmetry adapted cartesian basis functions of A2  symmetry.
 There are    11 symmetry adapted cartesian basis functions of B1  symmetry.
 There are    11 symmetry adapted cartesian basis functions of B2  symmetry.
 There are    20 symmetry adapted basis functions of A1  symmetry.
 There are     3 symmetry adapted basis functions of A2  symmetry.
 There are    10 symmetry adapted basis functions of B1  symmetry.
 There are    10 symmetry adapted basis functions of B2  symmetry.
    43 basis functions,    77 primitive gaussians,    48 cartesian basis functions
     9 alpha electrons        9 beta electrons
       nuclear repulsion energy         7.0506086476 Hartrees.
 NAtoms=    2 NActive=    2 NUniq=    2 SFac= 1.00D+00 NAtFMM=   60 NAOKFM=F Big=F
 Integral buffers will be    131072 words long.
 Raffenetti 2 integral format.
 Two-electron integral symmetry is turned on.
 One-electron integrals computed using PRISM.
   4 Symmetry operations used in ECPInt.
 ECPInt:  NShTT=     153 NPrTT=     600 LenC2=     154 LenP2D=     587.
 LDataN:  DoStor=T MaxTD1= 6 Len=  172
 NBasis=    43 RedAO= T EigKep=  1.82D-02  NBF=    20     3    10    10
 NBsUse=    43 1.00D-06 EigRej= -1.00D+00 NBFU=    20     3    10    10
 ExpMin= 1.03D-01 ExpMax= 6.95D+04 ExpMxC= 2.37D+03 IAcc=3 IRadAn=         5 AccDes= 0.00D+00
 Harris functional with IExCor= 1009 and IRadAn=       5 diagonalized for initial guess.
 HarFok:  IExCor= 1009 AccDes= 0.00D+00 IRadAn=         5 IDoV= 1 UseB2=F ITyADJ=14
 ICtDFT=  3500011 ScaDFX=  1.000000  1.000000  1.000000  1.000000
 FoFCou: FMM=F IPFlag=           0 FMFlag=      100000 FMFlg1=           0
         NFxFlg=           0 DoJE=T BraDBF=F KetDBF=T FulRan=T
         wScrn=  0.000000 ICntrl=       500 IOpCl=  0 I1Cent=   200000004 NGrid=           0
         NMat0=    1 NMatS0=      1 NMatT0=    0 NMatD0=    1 NMtDS0=    0 NMtDT0=    0
 Petite list used in FoFCou.
 Initial guess orbital symmetries:
       Occupied  (SG) (SG) (SG) (PI) (PI) (SG) (SG) (PI) (PI)
       Virtual   (SG) (SG) (PI) (PI) (SG) (PI) (PI) (DLTA) (DLTA)
                 (SG) (SG) (PI) (PI) (SG) (DLTA) (DLTA) (PI) (PI)
                 (SG) (DLTA) (DLTA) (PHI) (PHI) (PI) (PI) (SG)
                 (PI) (PI) (SG) (SG) (PI) (PI) (SG) (SG)
 The electronic state of the initial guess is 1-SG.
 Keep R1 ints in memory in symmetry-blocked form, NReq=7438438.
 Requested convergence on RMS density matrix=1.00D-08 within 128 cycles.
 Requested convergence on MAX density matrix=1.00D-06.
 Requested convergence on             energy=1.00D-06.
 No special actions if energy rises.
 Integral accuracy reduced to 1.0D-05 until final iterations.
 Initial convergence to 1.0D-05 achieved.  Increase integral accuracy.
 SCF Done:  E(RM062X) =  -460.798102563     A.U. after   10 cycles
            NFock= 10  Conv=0.72D-08     -V/T= 2.0008

 **********************************************************************

            Population analysis using the SCF Density.

 **********************************************************************

 Orbital symmetries:
       Occupied  (SG) (SG) (SG) (PI) (PI) (SG) (SG) (PI) (PI)
       Virtual   (SG) (SG) (PI) (PI) (SG) (PI) (PI) (DLTA) (DLTA)
                 (SG) (SG) (PI) (PI) (SG) (DLTA) (DLTA) (PI) (PI)
                 (SG) (DLTA) (DLTA) (PHI) (PHI) (PI) (PI) (SG)
                 (PI) (PI) (SG) (SG) (PI) (PI) (SG) (SG)
 The electronic state is 1-SG.
 Alpha  occ. eigenvalues -- -102.64831  -9.81184  -7.53380  -7.52860  -7.52860
 Alpha  occ. eigenvalues --   -0.94055  -0.53640  -0.39772  -0.39772
 Alpha virt. eigenvalues --    0.04467   0.22285   0.38643   0.38643   0.39605
 Alpha virt. eigenvalues --    0.44202   0.44202   0.48446   0.48447   0.68164
 Alpha virt. eigenvalues --    0.78954   1.51606   1.51606   1.71862   1.78473
 Alpha virt. eigenvalues --    1.78477   1.78660   1.78660   1.93689   2.09840
 Alpha virt. eigenvalues --    2.09842   2.12261   2.12261   2.19671   2.19671
 Alpha virt. eigenvalues --    2.20778   2.48651   2.48651   2.56081   3.29146
 Alpha virt. eigenvalues --   10.75449  10.75449  10.82741  24.60160
          Condensed to atoms (all electrons):
               1          2
     1  Cl  16.924165   0.321178
     2  H    0.321178   0.433479
 Mulliken charges:
               1
     1  Cl  -0.245343
     2  H    0.245343
 Sum of Mulliken charges =  -0.00000
 Mulliken charges with hydrogens summed into heavy atoms:
               1
     1  Cl  -0.000000
 Electronic spatial extent (au):  <R**2>=             33.8878
 Charge=             -0.0000 electrons
 Dipole moment (field-independent basis, Debye):
    X=              0.0000    Y=              0.0000    Z=             -1.2553  Tot=              1.2553
 Quadrupole moment (field-independent basis, Debye-Ang):
   XX=            -13.9429   YY=            -13.9429   ZZ=            -10.3094
   XY=              0.0000   XZ=              0.0000   YZ=              0.0000
 Traceless Quadrupole moment (field-independent basis, Debye-Ang):
   XX=             -1.2112   YY=             -1.2112   ZZ=              2.4224
   XY=              0.0000   XZ=              0.0000   YZ=              0.0000
 Octapole moment (field-independent basis, Debye-Ang**2):
  XXX=              0.0000  YYY=              0.0000  ZZZ=             -2.8148  XYY=              0.0000
  XXY=              0.0000  XXZ=             -0.1706  XZZ=              0.0000  YZZ=              0.0000
  YYZ=             -0.1706  XYZ=              0.0000
 Hexadecapole moment (field-independent basis, Debye-Ang**3):
 XXXX=            -15.9466 YYYY=            -15.9466 ZZZZ=            -13.4307 XXXY=              0.0000
 XXXZ=              0.0000 YYYX=              0.0000 YYYZ=              0.0000 ZZZX=              0.0000
 ZZZY=              0.0000 XXYY=             -5.3155 XXZZ=             -5.6211 YYZZ=             -5.6211
 XXYZ=              0.0000 YYXZ=              0.0000 ZZXY=              0.0000
 N-N= 7.050608647595D+00 E-N=-1.110533212643D+03  KE= 4.604103265614D+02
 Symmetry A1   KE= 3.684614574102D+02
 Symmetry A2   KE=-1.873305295755D-51
 Symmetry B1   KE= 4.597443457558D+01
 Symmetry B2   KE= 4.597443457558D+01
   4 Symmetry operations used in ECPInt.
 ECPInt:  NShTT=     153 NPrTT=     600 LenC2=     154 LenP2D=     587.
 LDataN:  DoStor=T MaxTD1= 7 Len=  274
 Calling FoFJK, ICntrl=      2127 FMM=F ISym2X=1 I1Cent= 0 IOpClX= 0 NMat=1 NMatS=1 NMatT=0.
 ***** Axes restored to original set *****
 -------------------------------------------------------------------
 Center     Atomic                   Forces (Hartrees/Bohr)
 Number     Number              X              Y              Z
 -------------------------------------------------------------------
      1       17           0.001049091   -0.000000000   -0.000000000
      2        1          -0.001049091   -0.000000000   -0.000000000
 -------------------------------------------------------------------
 Cartesian Forces:  Max     0.001049091 RMS     0.000605693

 GradGradGradGradGradGradGradGradGradGradGradGradGradGradGradGradGradGrad
 Berny optimization.
 FormGI is forming the generalized inverse of G from B-inverse, IUseBI=4.
 Internal  Forces:  Max     0.001049091 RMS     0.001049091
 Search for a local minimum.
 Step number   1 out of a maximum of   20
 All quantities printed in internal units (Hartrees-Bohrs-Radians)
 Mixed Optimization -- RFO/linear search
 Second derivative matrix not updated -- first step.
 The second derivative matrix:
                          R1
           R1           0.32291
 ITU=  0
     Eigenvalues ---    0.32291
 RFO step:  Lambda=-3.40827764D-06 EMin= 3.22914068D-01
 Linear search not attempted -- first point.
 Iteration  1 RMS(Cart)=  0.00229724 RMS(Int)=  0.00000000
 Iteration  2 RMS(Cart)=  0.00000000 RMS(Int)=  0.00000000
 ClnCor:  largest displacement from symmetrization is 0.00D+00 for atom     0.
 Variable       Old X    -DE/DX   Delta X   Delta X   Delta X     New X
                                 (Linear)    (Quad)   (Total)
    R1        2.41114   0.00105   0.00000   0.00325   0.00325   2.41439
         Item               Value     Threshold  Converged?
 Maximum Force            0.001049     0.000450     NO 
 RMS     Force            0.001049     0.000300     NO 
 Maximum Displacement     0.001624     0.001800     YES
 RMS     Displacement     0.002297     0.001200     NO 
 Predicted change in Energy=-1.704157D-06
 GradGradGradGradGradGradGradGradGradGradGradGradGradGradGradGradGradGrad

                          Input orientation:                          
 ---------------------------------------------------------------------
 Center     Atomic      Atomic             Coordinates (Angstroms)
 Number     Number       Type             X           Y           Z
 ---------------------------------------------------------------------
      1         17           0        0.036130    0.000000    0.000000
      2          1           0       -1.241510    0.000000    0.000000
 ---------------------------------------------------------------------
 Stoichiometry    ClH
 Framework group  C*V[C*(HCl)]
 Deg. of freedom     1
 Full point group                 C*V     NOp   4
 Largest Abelian subgroup         C2V     NOp   4
 Largest concise Abelian subgroup C1      NOp   1
                         Standard orientation:                         
 ---------------------------------------------------------------------
 Center     Atomic      Atomic             Coordinates (Angstroms)
 Number     Number       Type             X           Y           Z
 ---------------------------------------------------------------------
      1         17           0        0.000000    0.000000    0.070980
      2          1           0        0.000000    0.000000   -1.206659
 ---------------------------------------------------------------------
 Rotational constants (GHZ):           0.0000000         316.0496269         316.0496269
 Standard basis: def2TZVP (5D, 7F)
 There are    23 symmetry adapted cartesian basis functions of A1  symmetry.
 There are     3 symmetry adapted cartesian basis functions of A2  symmetry.
 There are    11 symmetry adapted cartesian basis functions of B1  symmetry.
 There are    11 symmetry adapted cartesian basis functions of B2  symmetry.
 There are    20 symmetry adapted basis functions of A1  symmetry.
 There are     3 symmetry adapted basis functions of A2  symmetry.
 There are    10 symmetry adapted basis functions of B1  symmetry.
 There are    10 symmetry adapted basis functions of B2  symmetry.
    43 basis functions,    77 primitive gaussians,    48 cartesian basis functions
     9 alpha electrons        9 beta electrons
       nuclear repulsion energy         7.0411213783 Hartrees.
 NAtoms=    2 NActive=    2 NUniq=    2 SFac= 1.00D+00 NAtFMM=   60 NAOKFM=F Big=F
 Integral buffers will be    131072 words long.
 Raffenetti 2 integral format.
 Two-electron integral symmetry is turned on.
 One-electron integrals computed using PRISM.
   4 Symmetry operations used in ECPInt.
 ECPInt:  NShTT=     153 NPrTT=     600 LenC2=     154 LenP2D=     587.
 LDataN:  DoStor=T MaxTD1= 6 Len=  172
 NBasis=    43 RedAO= T EigKep=  1.83D-02  NBF=    20     3    10    10
 NBsUse=    43 1.00D-06 EigRej= -1.00D+00 NBFU=    20     3    10    10
 Initial guess from the checkpoint file:  "/home/svss/projects/Project-Philicity/GS/hydrocarbon/set-1/GS/mol_34_hc/mol_34_hc.chk"
 B after Tr=     0.000000    0.000000    0.000000
         Rot=    1.000000    0.000000    0.000000    0.000000 Ang=   0.00 deg.
 Initial guess orbital symmetries:
       Occupied  (SG) (SG) (SG) (PI) (PI) (SG) (SG) (PI) (PI)
       Virtual   (SG) (SG) (PI) (PI) (SG) (PI) (PI) (DLTA) (DLTA)
                 (SG) (SG) (PI) (PI) (SG) (DLTA) (DLTA) (PI) (PI)
                 (SG) (DLTA) (DLTA) (PHI) (PHI) (PI) (PI) (SG)
                 (PI) (PI) (SG) (SG) (PI) (PI) (SG) (SG)
 Keep R1 ints in memory in symmetry-blocked form, NReq=7438438.
 Requested convergence on RMS density matrix=1.00D-08 within 128 cycles.
 Requested convergence on MAX density matrix=1.00D-06.
 Requested convergence on             energy=1.00D-06.
 No special actions if energy rises.
 SCF Done:  E(RM062X) =  -460.798104210     A.U. after    7 cycles
            NFock=  7  Conv=0.13D-08     -V/T= 2.0008
   4 Symmetry operations used in ECPInt.
 ECPInt:  NShTT=     153 NPrTT=     600 LenC2=     154 LenP2D=     587.
 LDataN:  DoStor=T MaxTD1= 7 Len=  274
 Calling FoFJK, ICntrl=      2127 FMM=F ISym2X=1 I1Cent= 0 IOpClX= 0 NMat=1 NMatS=1 NMatT=0.
 ***** Axes restored to original set *****
 -------------------------------------------------------------------
 Center     Atomic                   Forces (Hartrees/Bohr)
 Number     Number              X              Y              Z
 -------------------------------------------------------------------
      1       17          -0.000033107   -0.000000000   -0.000000000
      2        1           0.000033107   -0.000000000   -0.000000000
 -------------------------------------------------------------------
 Cartesian Forces:  Max     0.000033107 RMS     0.000019114

 GradGradGradGradGradGradGradGradGradGradGradGradGradGradGradGradGradGrad
 Berny optimization.
 Using GEDIIS/GDIIS optimizer.
 Internal  Forces:  Max     0.000033107 RMS     0.000033107
 Search for a local minimum.
 Step number   2 out of a maximum of   20
 All quantities printed in internal units (Hartrees-Bohrs-Radians)
 Mixed Optimization -- En-DIIS/RFO-DIIS
 Update second derivatives using D2CorX and points    1    2
 DE= -1.65D-06 DEPred=-1.70D-06 R= 9.67D-01
 TightC=F SS=  1.41D+00  RLast= 3.25D-03 DXNew= 5.0454D-01 9.7464D-03
 Trust test= 9.67D-01 RLast= 3.25D-03 DXMaxT set to 3.00D-01
 The second derivative matrix:
                          R1
           R1           0.33311
 ITU=  1  0
 Use linear search instead of GDIIS.
     Eigenvalues ---    0.33311
 RFO step:  Lambda= 0.00000000D+00 EMin= 3.33107964D-01
 Quartic linear search produced a step of -0.03074.
 Iteration  1 RMS(Cart)=  0.00007062 RMS(Int)=  0.00000000
 Iteration  2 RMS(Cart)=  0.00000000 RMS(Int)=  0.00000000
 ClnCor:  largest displacement from symmetrization is 0.00D+00 for atom     0.
 Variable       Old X    -DE/DX   Delta X   Delta X   Delta X     New X
                                 (Linear)    (Quad)   (Total)
    R1        2.41439  -0.00003  -0.00010   0.00000  -0.00010   2.41429
         Item               Value     Threshold  Converged?
 Maximum Force            0.000033     0.000450     YES
 RMS     Force            0.000033     0.000300     YES
 Maximum Displacement     0.000050     0.001800     YES
 RMS     Displacement     0.000071     0.001200     YES
 Predicted change in Energy=-1.645159D-09
 Optimization completed.
    -- Stationary point found.
                           ----------------------------
                           !   Optimized Parameters   !
                           ! (Angstroms and Degrees)  !
 --------------------------                            --------------------------
 ! Name  Definition              Value          Derivative Info.                !
 --------------------------------------------------------------------------------
 ! R1    R(1,2)                  1.2776         -DE/DX =    0.0                 !
 --------------------------------------------------------------------------------
 GradGradGradGradGradGradGradGradGradGradGradGradGradGradGradGradGradGrad

                          Input orientation:                          
 ---------------------------------------------------------------------
 Center     Atomic      Atomic             Coordinates (Angstroms)
 Number     Number       Type             X           Y           Z
 ---------------------------------------------------------------------
      1         17           0        0.036130    0.000000    0.000000
      2          1           0       -1.241510    0.000000    0.000000
 ---------------------------------------------------------------------
 Stoichiometry    ClH
 Framework group  C*V[C*(HCl)]
 Deg. of freedom     1
 Full point group                 C*V     NOp   4
 Largest Abelian subgroup         C2V     NOp   4
 Largest concise Abelian subgroup C1      NOp   1
                         Standard orientation:                         
 ---------------------------------------------------------------------
 Center     Atomic      Atomic             Coordinates (Angstroms)
 Number     Number       Type             X           Y           Z
 ---------------------------------------------------------------------
      1         17           0        0.000000    0.000000    0.070980
      2          1           0        0.000000    0.000000   -1.206659
 ---------------------------------------------------------------------
 Rotational constants (GHZ):           0.0000000         316.0496269         316.0496269

 **********************************************************************

            Population analysis using the SCF Density.

 **********************************************************************

 Orbital symmetries:
       Occupied  (SG) (SG) (SG) (PI) (PI) (SG) (SG) (PI) (PI)
       Virtual   (SG) (SG) (PI) (PI) (SG) (PI) (PI) (DLTA) (DLTA)
                 (SG) (SG) (PI) (PI) (SG) (DLTA) (DLTA) (PI) (PI)
                 (SG) (DLTA) (DLTA) (PHI) (PHI) (PI) (PI) (SG)
                 (PI) (PI) (SG) (SG) (PI) (PI) (SG) (SG)
 The electronic state is 1-SG.
 Alpha  occ. eigenvalues -- -102.64839  -9.81187  -7.53383  -7.52864  -7.52864
 Alpha  occ. eigenvalues --   -0.94026  -0.53612  -0.39767  -0.39767
 Alpha virt. eigenvalues --    0.04425   0.22289   0.38644   0.38644   0.39603
 Alpha virt. eigenvalues --    0.44208   0.44208   0.48450   0.48451   0.68094
 Alpha virt. eigenvalues --    0.78940   1.51510   1.51510   1.71888   1.78474
 Alpha virt. eigenvalues --    1.78479   1.78688   1.78688   1.93690   2.09847
 Alpha virt. eigenvalues --    2.09849   2.12265   2.12265   2.19673   2.19673
 Alpha virt. eigenvalues --    2.20782   2.48505   2.48505   2.55911   3.29018
 Alpha virt. eigenvalues --   10.75445  10.75445  10.82774  24.59496
          Condensed to atoms (all electrons):
               1          2
     1  Cl  16.924815   0.320886
     2  H    0.320886   0.433413
 Mulliken charges:
               1
     1  Cl  -0.245701
     2  H    0.245701
 Sum of Mulliken charges =  -0.00000
 Mulliken charges with hydrogens summed into heavy atoms:
               1
     1  Cl  -0.000000
 Electronic spatial extent (au):  <R**2>=             33.9023
 Charge=             -0.0000 electrons
 Dipole moment (field-independent basis, Debye):
    X=              0.0000    Y=              0.0000    Z=             -1.2572  Tot=              1.2572
 Quadrupole moment (field-independent basis, Debye-Ang):
   XX=            -13.9451   YY=            -13.9451   ZZ=            -10.3047
   XY=              0.0000   XZ=              0.0000   YZ=              0.0000
 Traceless Quadrupole moment (field-independent basis, Debye-Ang):
   XX=             -1.2135   YY=             -1.2135   ZZ=              2.4269
   XY=              0.0000   XZ=              0.0000   YZ=              0.0000
 Octapole moment (field-independent basis, Debye-Ang**2):
  XXX=              0.0000  YYY=              0.0000  ZZZ=             -2.8238  XYY=              0.0000
  XXY=              0.0000  XXZ=             -0.1692  XZZ=              0.0000  YZZ=              0.0000
  YYZ=             -0.1692  XYZ=              0.0000
 Hexadecapole moment (field-independent basis, Debye-Ang**3):
 XXXX=            -15.9504 YYYY=            -15.9504 ZZZZ=            -13.4322 XXXY=              0.0000
 XXXZ=              0.0000 YYYX=              0.0000 YYYZ=              0.0000 ZZZX=              0.0000
 ZZZY=              0.0000 XXYY=             -5.3168 XXZZ=             -5.6262 YYZZ=             -5.6262
 XXYZ=              0.0000 YYXZ=              0.0000 ZZXY=              0.0000
 N-N= 7.041121378332D+00 E-N=-1.110512686091D+03  KE= 4.604076739611D+02
 Symmetry A1   KE= 3.684585878519D+02
 Symmetry A2   KE= 3.884221230725D-51
 Symmetry B1   KE= 4.597454305463D+01
 Symmetry B2   KE= 4.597454305463D+01
 Unable to Open any file for archive entry.
 1\1\GINC-NODE12\FOpt\RM062X\def2TZVP\Cl1H1\SVSS\20-Jun-2022\0\\# opt f
 req M062X/def2tzvp\\converted from /home/svss/projects/Project-Philici
 ty/GS/hydrocarbon/set-1/GS/mol_34_hc/mol_34_hc_cregen_best.xyz\\0,1\Cl
 ,0.036129593,0.,0.\H,-1.241509593,0.,0.\\Version=AS64L-G16RevC.01\Stat
 e=1-SG\HF=-460.7981042\RMSD=1.284e-09\RMSF=1.911e-05\Dipole=-0.4946122
 ,0.,0.\Quadrupole=1.8043468,-0.9021734,-0.9021734,0.,0.,0.\PG=C*V [C*(
 H1Cl1)]\\@
 The archive entry for this job was punched.


 YOU CAN LEAD A BOY TO COLLEGE....
 BUT YOU CANNOT MAKE HIM THINK....
           ELBERT HUBBARD
 Job cpu time:       0 days  0 hours  0 minutes 12.2 seconds.
 Elapsed time:       0 days  0 hours  0 minutes  2.8 seconds.
 File lengths (MBytes):  RWF=     17 Int=      0 D2E=      0 Chk=      2 Scr=      2
 Normal termination of Gaussian 16 at Mon Jun 20 20:15:30 2022.
 Link1:  Proceeding to internal job step number  2.
 --------------------------------------------------------------------
 #N Geom=AllCheck Guess=TCheck SCRF=Check GenChk RM062X/def2TZVP Freq
 --------------------------------------------------------------------
 1/10=4,29=7,30=1,38=1,40=1/1,3;
 2/12=2,40=1/2;
 3/5=44,7=101,11=2,14=-4,25=1,30=1,70=2,71=2,74=-55,116=1,140=1/1,2,3;
 4/5=101/1;
 5/5=2,38=6,98=1/2;
 8/6=4,10=90,11=11/1;
 11/6=1,8=1,9=11,15=111,16=1/1,2,10;
 10/6=1/2;
 6/7=2,8=2,9=2,10=2,28=1/1;
 7/8=1,10=1,25=1/1,2,3,16;
 1/10=4,30=1/3;
 99//99;
 Structure from the checkpoint file:  "/home/svss/projects/Project-Philicity/GS/hydrocarbon/set-1/GS/mol_34_hc/mol_34_hc.chk"
 ----------------------------------------------------------------------
 converted from /home/svss/projects/Project-Philicity/GS/hydrocarbon/se
 t-1/GS/mol_34_hc/mol_34_hc_cregen_best.xyz
 ----------------------------------------------------------------------
 Charge =  0 Multiplicity = 1
 Redundant internal coordinates found in file.  (old form).
 Cl,0,0.036129593,0.,0.
 H,0,-1.241509593,0.,0.
 Recover connectivity data from disk.

 GradGradGradGradGradGradGradGradGradGradGradGradGradGradGradGradGradGrad
 Berny optimization.
 Initialization pass.
                           ----------------------------
                           !    Initial Parameters    !
                           ! (Angstroms and Degrees)  !
 --------------------------                            --------------------------
 ! Name  Definition              Value          Derivative Info.                !
 --------------------------------------------------------------------------------
 ! R1    R(1,2)                  1.2776         calculate D2E/DX2 analytically  !
 --------------------------------------------------------------------------------
 Trust Radius=3.00D-01 FncErr=1.00D-07 GrdErr=1.00D-07 EigMax=2.50D+02 EigMin=1.00D-04
 Number of steps in this run=      2 maximum allowed number of steps=      2.
 GradGradGradGradGradGradGradGradGradGradGradGradGradGradGradGradGradGrad

                          Input orientation:                          
 ---------------------------------------------------------------------
 Center     Atomic      Atomic             Coordinates (Angstroms)
 Number     Number       Type             X           Y           Z
 ---------------------------------------------------------------------
      1         17           0        0.036130    0.000000    0.000000
      2          1           0       -1.241510    0.000000    0.000000
 ---------------------------------------------------------------------
 Stoichiometry    ClH
 Framework group  C*V[C*(HCl)]
 Deg. of freedom     1
 Full point group                 C*V     NOp   4
 Largest Abelian subgroup         C2V     NOp   4
 Largest concise Abelian subgroup C1      NOp   1
                         Standard orientation:                         
 ---------------------------------------------------------------------
 Center     Atomic      Atomic             Coordinates (Angstroms)
 Number     Number       Type             X           Y           Z
 ---------------------------------------------------------------------
      1         17           0        0.000000    0.000000    0.070980
      2          1           0        0.000000    0.000000   -1.206659
 ---------------------------------------------------------------------
 Rotational constants (GHZ):           0.0000000         316.0496269         316.0496269
 Standard basis: def2TZVP (5D, 7F)
 There are    23 symmetry adapted cartesian basis functions of A1  symmetry.
 There are     3 symmetry adapted cartesian basis functions of A2  symmetry.
 There are    11 symmetry adapted cartesian basis functions of B1  symmetry.
 There are    11 symmetry adapted cartesian basis functions of B2  symmetry.
 There are    20 symmetry adapted basis functions of A1  symmetry.
 There are     3 symmetry adapted basis functions of A2  symmetry.
 There are    10 symmetry adapted basis functions of B1  symmetry.
 There are    10 symmetry adapted basis functions of B2  symmetry.
    43 basis functions,    77 primitive gaussians,    48 cartesian basis functions
     9 alpha electrons        9 beta electrons
       nuclear repulsion energy         7.0411213783 Hartrees.
 NAtoms=    2 NActive=    2 NUniq=    2 SFac= 1.00D+00 NAtFMM=   60 NAOKFM=F Big=F
 Integral buffers will be    131072 words long.
 Raffenetti 2 integral format.
 Two-electron integral symmetry is turned on.
 One-electron integrals computed using PRISM.
   4 Symmetry operations used in ECPInt.
 ECPInt:  NShTT=     153 NPrTT=     600 LenC2=     154 LenP2D=     587.
 LDataN:  DoStor=T MaxTD1= 6 Len=  172
 NBasis=    43 RedAO= T EigKep=  1.83D-02  NBF=    20     3    10    10
 NBsUse=    43 1.00D-06 EigRej= -1.00D+00 NBFU=    20     3    10    10
 Initial guess from the checkpoint file:  "/home/svss/projects/Project-Philicity/GS/hydrocarbon/set-1/GS/mol_34_hc/mol_34_hc.chk"
 B after Tr=     0.000000    0.000000    0.000000
         Rot=    1.000000    0.000000    0.000000    0.000000 Ang=   0.00 deg.
 Initial guess orbital symmetries:
       Occupied  (SG) (SG) (SG) (PI) (PI) (SG) (SG) (PI) (PI)
       Virtual   (SG) (SG) (PI) (PI) (SG) (PI) (PI) (DLTA) (DLTA)
                 (SG) (SG) (PI) (PI) (SG) (DLTA) (DLTA) (PI) (PI)
                 (SG) (DLTA) (DLTA) (PHI) (PHI) (PI) (PI) (SG)
                 (PI) (PI) (SG) (SG) (PI) (PI) (SG) (SG)
 Keep R1 ints in memory in symmetry-blocked form, NReq=7438438.
 Requested convergence on RMS density matrix=1.00D-08 within 128 cycles.
 Requested convergence on MAX density matrix=1.00D-06.
 Requested convergence on             energy=1.00D-06.
 No special actions if energy rises.
 SCF Done:  E(RM062X) =  -460.798104210     A.U. after    1 cycles
            NFock=  1  Conv=0.19D-09     -V/T= 2.0008
 DoSCS=F DFT=T ScalE2(SS,OS)=  1.000000  1.000000
 Range of M.O.s used for correlation:     1    43
 NBasis=    43 NAE=     9 NBE=     9 NFC=     0 NFV=     0
 NROrb=     43 NOA=     9 NOB=     9 NVA=    34 NVB=    34
   4 Symmetry operations used in ECPInt.
 ECPInt:  NShTT=     153 NPrTT=     600 LenC2=     154 LenP2D=     587.
 LDataN:  DoStor=T MaxTD1= 7 Len=  274
 Symmetrizing basis deriv contribution to polar:
 IMax=3 JMax=2 DiffMx= 0.00D+00
 G2DrvN: will do     3 centers at a time, making    1 passes.
 Calling FoFCou, ICntrl=  3107 FMM=F I1Cent=   0 AccDes= 0.00D+00.
 End of G2Drv F.D. properties file   721 does not exist.
 End of G2Drv F.D. properties file   722 does not exist.
 End of G2Drv F.D. properties file   788 does not exist.
          IDoAtm=11
          Differentiating once with respect to electric field.
                with respect to dipole field.
          Differentiating once with respect to nuclear coordinates.
 Keep R1 ints in memory in symmetry-blocked form, NReq=7412487.
          There are     9 degrees of freedom in the 1st order CPHF.  IDoFFX=6 NUNeed=     3.
      6 vectors produced by pass  0 Test12= 3.40D-15 1.11D-08 XBig12= 7.02D+00 2.06D+00.
 AX will form     6 AO Fock derivatives at one time.
      6 vectors produced by pass  1 Test12= 3.40D-15 1.11D-08 XBig12= 5.39D-01 3.93D-01.
      6 vectors produced by pass  2 Test12= 3.40D-15 1.11D-08 XBig12= 7.20D-03 3.28D-02.
      6 vectors produced by pass  3 Test12= 3.40D-15 1.11D-08 XBig12= 4.85D-05 2.93D-03.
      6 vectors produced by pass  4 Test12= 3.40D-15 1.11D-08 XBig12= 7.22D-07 2.20D-04.
      6 vectors produced by pass  5 Test12= 3.40D-15 1.11D-08 XBig12= 1.24D-08 4.58D-05.
      4 vectors produced by pass  6 Test12= 3.40D-15 1.11D-08 XBig12= 4.88D-11 2.81D-06.
      3 vectors produced by pass  7 Test12= 3.40D-15 1.11D-08 XBig12= 9.81D-14 1.20D-07.
 InvSVY:  IOpt=1 It=  1 EMax= 5.55D-16
 Solved reduced A of dimension    43 with     6 vectors.
 Isotropic polarizability for W=    0.000000       11.58 Bohr**3.
 End of Minotr F.D. properties file   721 does not exist.
 End of Minotr F.D. properties file   722 does not exist.
 End of Minotr F.D. properties file   788 does not exist.

 **********************************************************************

            Population analysis using the SCF Density.

 **********************************************************************

 Orbital symmetries:
       Occupied  (SG) (SG) (SG) (PI) (PI) (SG) (SG) (PI) (PI)
       Virtual   (SG) (SG) (PI) (PI) (SG) (PI) (PI) (DLTA) (DLTA)
                 (SG) (SG) (PI) (PI) (SG) (DLTA) (DLTA) (PI) (PI)
                 (SG) (DLTA) (DLTA) (PHI) (PHI) (PI) (PI) (SG)
                 (PI) (PI) (SG) (SG) (PI) (PI) (SG) (SG)
 The electronic state is 1-SG.
 Alpha  occ. eigenvalues -- -102.64839  -9.81187  -7.53383  -7.52864  -7.52864
 Alpha  occ. eigenvalues --   -0.94026  -0.53612  -0.39767  -0.39767
 Alpha virt. eigenvalues --    0.04425   0.22289   0.38644   0.38644   0.39603
 Alpha virt. eigenvalues --    0.44208   0.44208   0.48450   0.48451   0.68094
 Alpha virt. eigenvalues --    0.78940   1.51510   1.51510   1.71888   1.78474
 Alpha virt. eigenvalues --    1.78479   1.78688   1.78688   1.93690   2.09847
 Alpha virt. eigenvalues --    2.09849   2.12265   2.12265   2.19673   2.19673
 Alpha virt. eigenvalues --    2.20782   2.48505   2.48505   2.55911   3.29018
 Alpha virt. eigenvalues --   10.75445  10.75445  10.82774  24.59496
          Condensed to atoms (all electrons):
               1          2
     1  Cl  16.924815   0.320886
     2  H    0.320886   0.433413
 Mulliken charges:
               1
     1  Cl  -0.245701
     2  H    0.245701
 Sum of Mulliken charges =   0.00000
 Mulliken charges with hydrogens summed into heavy atoms:
               1
     1  Cl   0.000000
 APT charges:
               1
     1  Cl  -0.209830
     2  H    0.209830
 Sum of APT charges =   0.00000
 APT charges with hydrogens summed into heavy atoms:
               1
     1  Cl   0.000000
 Electronic spatial extent (au):  <R**2>=             33.9023
 Charge=              0.0000 electrons
 Dipole moment (field-independent basis, Debye):
    X=              0.0000    Y=              0.0000    Z=             -1.2572  Tot=              1.2572
 Quadrupole moment (field-independent basis, Debye-Ang):
   XX=            -13.9451   YY=            -13.9451   ZZ=            -10.3047
   XY=              0.0000   XZ=              0.0000   YZ=              0.0000
 Traceless Quadrupole moment (field-independent basis, Debye-Ang):
   XX=             -1.2135   YY=             -1.2135   ZZ=              2.4269
   XY=              0.0000   XZ=              0.0000   YZ=              0.0000
 Octapole moment (field-independent basis, Debye-Ang**2):
  XXX=              0.0000  YYY=              0.0000  ZZZ=             -2.8238  XYY=              0.0000
  XXY=              0.0000  XXZ=             -0.1692  XZZ=              0.0000  YZZ=              0.0000
  YYZ=             -0.1692  XYZ=              0.0000
 Hexadecapole moment (field-independent basis, Debye-Ang**3):
 XXXX=            -15.9504 YYYY=            -15.9504 ZZZZ=            -13.4322 XXXY=              0.0000
 XXXZ=              0.0000 YYYX=              0.0000 YYYZ=              0.0000 ZZZX=              0.0000
 ZZZY=              0.0000 XXYY=             -5.3168 XXZZ=             -5.6262 YYZZ=             -5.6262
 XXYZ=              0.0000 YYXZ=              0.0000 ZZXY=              0.0000
 N-N= 7.041121378332D+00 E-N=-1.110512686276D+03  KE= 4.604076740367D+02
 Symmetry A1   KE= 3.684585878735D+02
 Symmetry A2   KE= 3.945280421304D-51
 Symmetry B1   KE= 4.597454308159D+01
 Symmetry B2   KE= 4.597454308159D+01
  Exact polarizability:       9.988       0.000       9.988      -0.000       0.000      14.769
 Approx polarizability:      12.460      -0.000      12.460      -0.000      -0.000      19.166
   4 Symmetry operations used in ECPInt.
 ECPInt:  NShTT=     153 NPrTT=     600 LenC2=     154 LenP2D=     587.
 LDataN:  DoStor=T MaxTD1= 8 Len=  415
 Calling FoFJK, ICntrl=    100127 FMM=F ISym2X=1 I1Cent= 0 IOpClX= 0 NMat=1 NMatS=1 NMatT=0.
 Full mass-weighted force constant matrix:
 Low frequencies --- -185.4772 -185.4772   -0.0051   -0.0042   -0.0042 2989.3372
 Diagonal vibrational polarizability:
        0.0000000       0.0000000       0.1466543
 Harmonic frequencies (cm**-1), IR intensities (KM/Mole), Raman scattering
 activities (A**4/AMU), depolarization ratios for plane and unpolarized
 incident light, reduced masses (AMU), force constants (mDyne/A),
 and normal coordinates:
                      1
                     SG
 Frequencies --   2989.3372
 Red. masses --      1.0360
 Frc consts  --      5.4546
 IR Inten    --     48.6980
  Atom  AN      X      Y      Z
     1  17    -0.00  -0.00  -0.03
     2   1    -0.00  -0.00   1.00

 -------------------
 - Thermochemistry -
 -------------------
 Temperature   298.150 Kelvin.  Pressure   1.00000 Atm.
 Atom     1 has atomic number 17 and mass  34.96885
 Atom     2 has atomic number  1 and mass   1.00783
 Molecular mass:    35.97668 amu.
 Principal axes and moments of inertia in atomic units:
                           1         2         3
     Eigenvalues --     0.00000   5.71031   5.71031
           X            0.00000  -0.00000   1.00000
           Y            0.00000   1.00000   0.00000
           Z            1.00000   0.00000   0.00000
 This molecule is a prolate symmetric top.
 Rotational symmetry number  1.
 Rotational temperature (Kelvin)     15.16799
 Rotational constant (GHZ):         316.049627
 Zero-point vibrational energy      17880.2 (Joules/Mol)
                                    4.27347 (Kcal/Mol)
 Vibrational temperatures:   4300.99
          (Kelvin)
 
 Zero-point correction=                           0.006810 (Hartree/Particle)
 Thermal correction to Energy=                    0.009171
 Thermal correction to Enthalpy=                  0.010115
 Thermal correction to Gibbs Free Energy=        -0.011065
 Sum of electronic and zero-point Energies=           -460.791294
 Sum of electronic and thermal Energies=              -460.788934
 Sum of electronic and thermal Enthalpies=            -460.787989
 Sum of electronic and thermal Free Energies=         -460.809169
 
                     E (Thermal)             CV                S
                      KCal/Mol        Cal/Mol-Kelvin    Cal/Mol-Kelvin
 Total                    5.755              4.968             44.577
 Electronic               0.000              0.000              0.000
 Translational            0.889              2.981             36.671
 Rotational               0.592              1.987              7.906
 Vibrational              4.273              0.000              0.000
                       Q            Log10(Q)             Ln(Q)
 Total Bot       0.122890D+06          5.089516         11.719043
 Total V=0       0.166722D+09          8.221992         18.931837
 Vib (Bot)       0.737095D-03         -3.132477         -7.212794
 Vib (V=0)       0.100000D+01          0.000000          0.000001
 Electronic      0.100000D+01          0.000000          0.000000
 Translational   0.848175D+07          6.928485         15.953427
 Rotational      0.196565D+02          1.293507          2.978409
 ***** Axes restored to original set *****
 -------------------------------------------------------------------
 Center     Atomic                   Forces (Hartrees/Bohr)
 Number     Number              X              Y              Z
 -------------------------------------------------------------------
      1       17          -0.000033107   -0.000000000   -0.000000000
      2        1           0.000033107   -0.000000000   -0.000000000
 -------------------------------------------------------------------
 Cartesian Forces:  Max     0.000033107 RMS     0.000019115
 FormGI is forming the generalized inverse of G from B-inverse, IUseBI=4.

 GradGradGradGradGradGradGradGradGradGradGradGradGradGradGradGradGradGrad
 Berny optimization.
 Internal  Forces:  Max     0.000033107 RMS     0.000033107
 Search for a local minimum.
 Step number   1 out of a maximum of    2
 All quantities printed in internal units (Hartrees-Bohrs-Radians)
 Second derivative matrix not updated -- analytic derivatives used.
 The second derivative matrix:
                          R1
           R1           0.33127
 ITU=  0
     Eigenvalues ---    0.33127
 Angle between quadratic step and forces=   0.00 degrees.
 Linear search not attempted -- first point.
 Iteration  1 RMS(Cart)=  0.00007067 RMS(Int)=  0.00000000
 Iteration  2 RMS(Cart)=  0.00000000 RMS(Int)=  0.00000000
 ClnCor:  largest displacement from symmetrization is 0.00D+00 for atom     0.
 Variable       Old X    -DE/DX   Delta X   Delta X   Delta X     New X
                                 (Linear)    (Quad)   (Total)
    R1        2.41439  -0.00003   0.00000  -0.00010  -0.00010   2.41429
         Item               Value     Threshold  Converged?
 Maximum Force            0.000033     0.000450     YES
 RMS     Force            0.000033     0.000300     YES
 Maximum Displacement     0.000050     0.001800     YES
 RMS     Displacement     0.000071     0.001200     YES
 Predicted change in Energy=-1.654362D-09
 Optimization completed.
    -- Stationary point found.
                           ----------------------------
                           !   Optimized Parameters   !
                           ! (Angstroms and Degrees)  !
 --------------------------                            --------------------------
 ! Name  Definition              Value          Derivative Info.                !
 --------------------------------------------------------------------------------
 ! R1    R(1,2)                  1.2776         -DE/DX =    0.0                 !
 --------------------------------------------------------------------------------
 GradGradGradGradGradGradGradGradGradGradGradGradGradGradGradGradGradGrad


 ----------------------------------------------------------------------

 Electric dipole moment (input orientation):
 (Debye = 10**-18 statcoulomb cm , SI units = C m)
                  (au)            (Debye)         (10**-30 SI)
   Tot        0.494612D+00      0.125718D+01      0.419350D+01
   x         -0.494612D+00     -0.125718D+01     -0.419350D+01
   y          0.000000D+00      0.000000D+00      0.000000D+00
   z          0.000000D+00      0.000000D+00      0.000000D+00

 Dipole polarizability, Alpha (input orientation).
 (esu units = cm**3 , SI units = C**2 m**2 J**-1)
 Alpha(0;0):
               (au)            (10**-24 esu)      (10**-40 SI)
   iso        0.115813D+02      0.171617D+01      0.190950D+01
   aniso      0.478080D+01      0.708442D+00      0.788248D+00
   xx         0.147685D+02      0.218847D+01      0.243500D+01
   yx         0.000000D+00      0.000000D+00      0.000000D+00
   yy         0.998770D+01      0.148002D+01      0.164675D+01
   zx         0.000000D+00      0.000000D+00      0.000000D+00
   zy         0.000000D+00      0.000000D+00      0.000000D+00
   zz         0.998770D+01      0.148002D+01      0.164675D+01

 ----------------------------------------------------------------------

 Dipole orientation:
    17          0.00000000          0.00000000         -0.06827504
     1         -0.00000000          0.00000000          2.34611311

 Electric dipole moment (dipole orientation):
 (Debye = 10**-18 statcoulomb cm , SI units = C m)
                  (au)            (Debye)         (10**-30 SI)
   Tot        0.494612D+00      0.125718D+01      0.419350D+01
   x          0.000000D+00      0.000000D+00      0.000000D+00
   y          0.000000D+00      0.000000D+00      0.000000D+00
   z          0.494612D+00      0.125718D+01      0.419350D+01

 Dipole polarizability, Alpha (dipole orientation).
 (esu units = cm**3 , SI units = C**2 m**2 J**-1)
 Alpha(0;0):
               (au)            (10**-24 esu)      (10**-40 SI)
   iso        0.115813D+02      0.171617D+01      0.190950D+01
   aniso      0.478080D+01      0.708442D+00      0.788248D+00
   xx         0.998770D+01      0.148002D+01      0.164675D+01
   yx         0.000000D+00      0.000000D+00      0.000000D+00
   yy         0.998770D+01      0.148002D+01      0.164675D+01
   zx         0.000000D+00      0.000000D+00      0.000000D+00
   zy         0.000000D+00      0.000000D+00      0.000000D+00
   zz         0.147685D+02      0.218847D+01      0.243500D+01

 ----------------------------------------------------------------------
 Unable to Open any file for archive entry.
 1\1\GINC-NODE12\Freq\RM062X\def2TZVP\Cl1H1\SVSS\20-Jun-2022\0\\#N Geom
 =AllCheck Guess=TCheck SCRF=Check GenChk RM062X/def2TZVP Freq\\convert
 ed from /home/svss/projects/Project-Philicity/GS/hydrocarbon/set-1/GS/
 mol_34_hc/mol_34_hc_cregen_best.xyz\\0,1\Cl,0.036129593,0.,0.\H,-1.241
 509593,0.,0.\\Version=AS64L-G16RevC.01\State=1-SG\HF=-460.7981042\RMSD
 =1.893e-10\RMSF=1.911e-05\ZeroPoint=0.0068102\Thermal=0.0091707\ETot=-
 460.7889335\HTot=-460.7879893\GTot=-460.8091692\Dipole=-0.4946122,0.,0
 .\DipoleDeriv=-0.221209,0.,0.,0.,-0.2041408,0.,0.,0.,-0.2041408,0.2212
 09,0.,0.,0.,0.2041408,0.,0.,0.,0.2041408\Polar=14.7685018,0.,9.9876989
 ,0.,0.,9.9876989\Quadrupole=1.8043468,-0.9021734,-0.9021734,0.,0.,0.\P
 G=C*V [C*(H1Cl1)]\NImag=0\\0.33127352,0.,-0.00127532,0.,0.,-0.00127532
 ,-0.33127352,0.,0.,0.33127352,0.,0.00127532,0.,0.,-0.00127532,0.,0.,0.
 00127532,0.,0.,-0.00127532\\0.00003311,0.,0.,-0.00003311,0.,0.\\\@
 The archive entry for this job was punched.


 THERE ARE PEOPLE SO ADDICTED TO EXAGERATING THEY
 CAN'T TELL THE TRUTH WITHOUT LYING. -- FORTUNE COOKIE
 Job cpu time:       0 days  0 hours  0 minutes 13.9 seconds.
 Elapsed time:       0 days  0 hours  0 minutes  2.5 seconds.
 File lengths (MBytes):  RWF=     17 Int=      0 D2E=      0 Chk=      2 Scr=      2
 Normal termination of Gaussian 16 at Mon Jun 20 20:15:33 2022.
