 Entering Gaussian System, Link 0=/opt/apps/Gaussian/G16C/g16/g16
 Input=/home/svss/projects/Project-Philicity/GS/hydrocarbon/set-1/GS/mol_1_hc/mol_1_hc.com
 Output=/home/svss/projects/Project-Philicity/GS/hydrocarbon/set-1/GS/mol_1_hc/mol_1_hc.log
 Initial command:
 /opt/apps/Gaussian/G16C/g16/l1.exe "/home/svss/projects/Project-Philicity/GS/hydrocarbon/set-1/Gau-72835.inp" -scrdir="/home/svss/projects/Project-Philicity/GS/hydrocarbon/set-1/"
 Entering Link 1 = /opt/apps/Gaussian/G16C/g16/l1.exe PID=     72836.
  
 Copyright (c) 1988-2019, Gaussian, Inc.  All Rights Reserved.
  
 This is part of the Gaussian(R) 16 program.  It is based on
 the Gaussian(R) 09 system (copyright 2009, Gaussian, Inc.),
 the Gaussian(R) 03 system (copyright 2003, Gaussian, Inc.),
 the Gaussian(R) 98 system (copyright 1998, Gaussian, Inc.),
 the Gaussian(R) 94 system (copyright 1995, Gaussian, Inc.),
 the Gaussian 92(TM) system (copyright 1992, Gaussian, Inc.),
 the Gaussian 90(TM) system (copyright 1990, Gaussian, Inc.),
 the Gaussian 88(TM) system (copyright 1988, Gaussian, Inc.),
 the Gaussian 86(TM) system (copyright 1986, Carnegie Mellon
 University), and the Gaussian 82(TM) system (copyright 1983,
 Carnegie Mellon University). Gaussian is a federally registered
 trademark of Gaussian, Inc.
  
 This software contains proprietary and confidential information,
 including trade secrets, belonging to Gaussian, Inc.
  
 This software is provided under written license and may be
 used, copied, transmitted, or stored only in accord with that
 written license.
  
 The following legend is applicable only to US Government
 contracts under FAR:
  
                    RESTRICTED RIGHTS LEGEND
  
 Use, reproduction and disclosure by the US Government is
 subject to restrictions as set forth in subparagraphs (a)
 and (c) of the Commercial Computer Software - Restricted
 Rights clause in FAR 52.227-19.
  
 Gaussian, Inc.
 340 Quinnipiac St., Bldg. 40, Wallingford CT 06492
  
  
 ---------------------------------------------------------------
 Warning -- This program may not be used in any manner that
 competes with the business of Gaussian, Inc. or will provide
 assistance to any competitor of Gaussian, Inc.  The licensee
 of this program is prohibited from giving any competitor of
 Gaussian, Inc. access to this program.  By using this program,
 the user acknowledges that Gaussian, Inc. is engaged in the
 business of creating and licensing software in the field of
 computational chemistry and represents and warrants to the
 licensee that it is not a competitor of Gaussian, Inc. and that
 it will not use this program in any manner prohibited above.
 ---------------------------------------------------------------
  

 Cite this work as:
 Gaussian 16, Revision C.01,
 M. J. Frisch, G. W. Trucks, H. B. Schlegel, G. E. Scuseria, 
 M. A. Robb, J. R. Cheeseman, G. Scalmani, V. Barone, 
 G. A. Petersson, H. Nakatsuji, X. Li, M. Caricato, A. V. Marenich, 
 J. Bloino, B. G. Janesko, R. Gomperts, B. Mennucci, H. P. Hratchian, 
 J. V. Ortiz, A. F. Izmaylov, J. L. Sonnenberg, D. Williams-Young, 
 F. Ding, F. Lipparini, F. Egidi, J. Goings, B. Peng, A. Petrone, 
 T. Henderson, D. Ranasinghe, V. G. Zakrzewski, J. Gao, N. Rega, 
 G. Zheng, W. Liang, M. Hada, M. Ehara, K. Toyota, R. Fukuda, 
 J. Hasegawa, M. Ishida, T. Nakajima, Y. Honda, O. Kitao, H. Nakai, 
 T. Vreven, K. Throssell, J. A. Montgomery, Jr., J. E. Peralta, 
 F. Ogliaro, M. J. Bearpark, J. J. Heyd, E. N. Brothers, K. N. Kudin, 
 V. N. Staroverov, T. A. Keith, R. Kobayashi, J. Normand, 
 K. Raghavachari, A. P. Rendell, J. C. Burant, S. S. Iyengar, 
 J. Tomasi, M. Cossi, J. M. Millam, M. Klene, C. Adamo, R. Cammi, 
 J. W. Ochterski, R. L. Martin, K. Morokuma, O. Farkas, 
 J. B. Foresman, and D. J. Fox, Gaussian, Inc., Wallingford CT, 2019.
 
 ******************************************
 Gaussian 16:  AS64L-G16RevC.01  3-Jul-2019
                20-Jun-2022 
 ******************************************
 %nproc=8
 Will use up to    8 processors via shared memory.
 %mem=96GB
 %chk=/home/svss/projects/Project-Philicity/GS/hydrocarbon/set-1/GS/mol_1_hc/mol_
 1_hc.chk
 -------------------------
 # opt freq M062X/def2tzvp
 -------------------------
 1/18=20,19=15,26=3,38=1/1,3;
 2/9=110,12=2,17=6,18=5,40=1/2;
 3/5=44,7=101,11=2,25=1,30=1,71=1,74=-55/1,2,3;
 4//1;
 5/5=2,38=5/2;
 6/7=2,8=2,9=2,10=2,28=1/1;
 7//1,2,3,16;
 1/18=20,19=15,26=3/3(2);
 2/9=110/2;
 99//99;
 2/9=110/2;
 3/5=44,7=101,11=2,25=1,30=1,71=1,74=-55/1,2,3;
 4/5=5,16=3,69=1/1;
 5/5=2,38=5/2;
 7//1,2,3,16;
 1/18=20,19=15,26=3/3(-5);
 2/9=110/2;
 6/7=2,8=2,9=2,10=2,19=2,28=1/1;
 99/9=1/99;
 ----------------------------------------------------------------------
 converted from /home/svss/projects/Project-Philicity/GS/hydrocarbon/se
 t-1/GS/mol_1_hc/mol_1_hc_cregen_best.xyz
 ----------------------------------------------------------------------
 Symbolic Z-matrix:
 Charge =  0 Multiplicity = 1
 C                     1.26654  -0.71974   0.11145 
 C                     0.00305  -0.00635  -0.36982 
 C                    -1.25452  -0.72705   0.10188 
 O                    -0.06286   1.31652   0.12985 
 H                     1.285    -1.74101  -0.25885 
 H                     2.15839  -0.20649  -0.24606 
 H                     1.28828  -0.73851   1.19886 
 H                     0.00836   0.02338  -1.47377 
 H                    -1.26194  -0.77653   1.18745 
 H                    -2.13349  -0.17804  -0.2236 
 H                    -1.2887   -1.73332  -0.30566 
 H                     0.76223   1.76899  -0.07468 
 

 GradGradGradGradGradGradGradGradGradGradGradGradGradGradGradGradGradGrad
 Berny optimization.
 Initialization pass.
                           ----------------------------
                           !    Initial Parameters    !
                           ! (Angstroms and Degrees)  !
 --------------------------                            --------------------------
 ! Name  Definition              Value          Derivative Info.                !
 --------------------------------------------------------------------------------
 ! R1    R(1,2)                  1.5287         estimate D2E/DX2                !
 ! R2    R(1,5)                  1.0865         estimate D2E/DX2                !
 ! R3    R(1,6)                  1.0893         estimate D2E/DX2                !
 ! R4    R(1,7)                  1.0878         estimate D2E/DX2                !
 ! R5    R(2,3)                  1.5243         estimate D2E/DX2                !
 ! R6    R(2,4)                  1.4156         estimate D2E/DX2                !
 ! R7    R(2,8)                  1.1044         estimate D2E/DX2                !
 ! R8    R(3,9)                  1.0867         estimate D2E/DX2                !
 ! R9    R(3,10)                 1.0862         estimate D2E/DX2                !
 ! R10   R(3,11)                 1.0862         estimate D2E/DX2                !
 ! R11   R(4,12)                 0.963          estimate D2E/DX2                !
 ! A1    A(2,1,5)              110.2059         estimate D2E/DX2                !
 ! A2    A(2,1,6)              110.7003         estimate D2E/DX2                !
 ! A3    A(2,1,7)              109.8331         estimate D2E/DX2                !
 ! A4    A(5,1,6)              108.4885         estimate D2E/DX2                !
 ! A5    A(5,1,7)              108.9138         estimate D2E/DX2                !
 ! A6    A(6,1,7)              108.6536         estimate D2E/DX2                !
 ! A7    A(1,2,3)              111.3353         estimate D2E/DX2                !
 ! A8    A(1,2,4)              111.3119         estimate D2E/DX2                !
 ! A9    A(1,2,8)              108.8621         estimate D2E/DX2                !
 ! A10   A(3,2,4)              107.1093         estimate D2E/DX2                !
 ! A11   A(3,2,8)              109.0286         estimate D2E/DX2                !
 ! A12   A(4,2,8)              109.1415         estimate D2E/DX2                !
 ! A13   A(2,3,9)              109.6512         estimate D2E/DX2                !
 ! A14   A(2,3,10)             109.6274         estimate D2E/DX2                !
 ! A15   A(2,3,11)             110.3575         estimate D2E/DX2                !
 ! A16   A(9,3,10)             108.4699         estimate D2E/DX2                !
 ! A17   A(9,3,11)             109.4147         estimate D2E/DX2                !
 ! A18   A(10,3,11)            109.2894         estimate D2E/DX2                !
 ! A19   A(2,4,12)             108.9181         estimate D2E/DX2                !
 ! D1    D(5,1,2,3)             58.9699         estimate D2E/DX2                !
 ! D2    D(5,1,2,4)            178.4028         estimate D2E/DX2                !
 ! D3    D(5,1,2,8)            -61.2509         estimate D2E/DX2                !
 ! D4    D(6,1,2,3)            178.99           estimate D2E/DX2                !
 ! D5    D(6,1,2,4)            -61.5771         estimate D2E/DX2                !
 ! D6    D(6,1,2,8)             58.7693         estimate D2E/DX2                !
 ! D7    D(7,1,2,3)            -61.0252         estimate D2E/DX2                !
 ! D8    D(7,1,2,4)             58.4076         estimate D2E/DX2                !
 ! D9    D(7,1,2,8)            178.754          estimate D2E/DX2                !
 ! D10   D(1,2,3,9)             58.9509         estimate D2E/DX2                !
 ! D11   D(1,2,3,10)           177.9305         estimate D2E/DX2                !
 ! D12   D(1,2,3,11)           -61.6446         estimate D2E/DX2                !
 ! D13   D(4,2,3,9)            -62.9521         estimate D2E/DX2                !
 ! D14   D(4,2,3,10)            56.0275         estimate D2E/DX2                !
 ! D15   D(4,2,3,11)           176.4524         estimate D2E/DX2                !
 ! D16   D(8,2,3,9)            179.0734         estimate D2E/DX2                !
 ! D17   D(8,2,3,10)           -61.947          estimate D2E/DX2                !
 ! D18   D(8,2,3,11)            58.4779         estimate D2E/DX2                !
 ! D19   D(1,2,4,12)            52.224          estimate D2E/DX2                !
 ! D20   D(3,2,4,12)           174.1417         estimate D2E/DX2                !
 ! D21   D(8,2,4,12)           -67.9575         estimate D2E/DX2                !
 --------------------------------------------------------------------------------
 Trust Radius=3.00D-01 FncErr=1.00D-07 GrdErr=1.00D-06 EigMax=2.50D+02 EigMin=1.00D-04
 Number of steps in this run=     61 maximum allowed number of steps=    100.
 GradGradGradGradGradGradGradGradGradGradGradGradGradGradGradGradGradGrad

                          Input orientation:                          
 ---------------------------------------------------------------------
 Center     Atomic      Atomic             Coordinates (Angstroms)
 Number     Number       Type             X           Y           Z
 ---------------------------------------------------------------------
      1          6           0        1.266540   -0.719740    0.111450
      2          6           0        0.003050   -0.006350   -0.369820
      3          6           0       -1.254520   -0.727050    0.101880
      4          8           0       -0.062860    1.316520    0.129850
      5          1           0        1.285000   -1.741010   -0.258850
      6          1           0        2.158390   -0.206490   -0.246060
      7          1           0        1.288280   -0.738510    1.198860
      8          1           0        0.008360    0.023380   -1.473770
      9          1           0       -1.261940   -0.776530    1.187450
     10          1           0       -2.133490   -0.178040   -0.223600
     11          1           0       -1.288700   -1.733320   -0.305660
     12          1           0        0.762230    1.768990   -0.074680
 ---------------------------------------------------------------------
                    Distance matrix (angstroms):
                    1          2          3          4          5
     1  C    0.000000
     2  C    1.528710   0.000000
     3  C    2.521089   1.524268   0.000000
     4  O    2.431871   1.415627   2.365801   0.000000
     5  H    1.086488   2.159804   2.758152   3.363971   0.000000
     6  H    1.089328   2.168147   3.469870   2.719342   1.765708
     7  H    1.087789   2.156068   2.769355   2.681699   1.769162
     8  H    2.155961   1.104363   2.154225   2.061281   2.493775
     9  H    2.748493   2.149062   1.086722   2.633851   3.083652
    10  H    3.459176   2.148409   1.086249   2.578012   3.759015
    11  H    2.780391   2.157582   1.086203   3.315702   2.574137
    12  H    2.546124   1.953278   3.213825   0.962982   3.553492
                    6          7          8          9         10
     6  H    0.000000
     7  H    1.768596   0.000000
     8  H    2.486512   3.059677   0.000000
     9  H    3.752140   2.550529   3.055423   0.000000
    10  H    4.292033   3.747803   2.488175   1.763194   0.000000
    11  H    3.770569   3.145481   2.476457   1.773567   1.771807
    12  H    2.425109   2.861152   2.360705   3.488540   3.492606
                   11         12
    11  H    0.000000
    12  H    4.065199   0.000000
 Stoichiometry    C3H8O
 Framework group  C1[X(C3H8O)]
 Deg. of freedom    30
 Full point group                 C1      NOp   1
 Largest Abelian subgroup         C1      NOp   1
 Largest concise Abelian subgroup C1      NOp   1
                         Standard orientation:                         
 ---------------------------------------------------------------------
 Center     Atomic      Atomic             Coordinates (Angstroms)
 Number     Number       Type             X           Y           Z
 ---------------------------------------------------------------------
      1          6           0       -1.156470   -0.827799   -0.101476
      2          6           0        0.002018    0.053261    0.366059
      3          6           0        1.343953   -0.505793   -0.092266
      4          8           0       -0.104156    1.363865   -0.158387
      5          1           0       -1.042322   -1.835656    0.287948
      6          1           0       -2.108481   -0.428776    0.246504
      7          1           0       -1.173120   -0.869524   -1.188337
      8          1           0       -0.009618    0.102628    1.469257
      9          1           0        1.360218   -0.574119   -1.176716
     10          1           0        2.143016    0.159226    0.222670
     11          1           0        1.508249   -1.491215    0.334099
     12          1           0       -0.981701    1.708500    0.037769
 ---------------------------------------------------------------------
 Rotational constants (GHZ):           8.6724623           8.1245369           4.7933007
 Standard basis: def2TZVP (5D, 7F)
 There are   192 symmetry adapted cartesian basis functions of A   symmetry.
 There are   172 symmetry adapted basis functions of A   symmetry.
   172 basis functions,   268 primitive gaussians,   192 cartesian basis functions
    17 alpha electrons       17 beta electrons
       nuclear repulsion energy       135.1196857787 Hartrees.
 NAtoms=   12 NActive=   12 NUniq=   12 SFac= 1.00D+00 NAtFMM=   60 NAOKFM=F Big=F
 Integral buffers will be    131072 words long.
 Raffenetti 2 integral format.
 Two-electron integral symmetry is turned on.
 One-electron integrals computed using PRISM.
   1 Symmetry operations used in ECPInt.
 ECPInt:  NShTT=    2926 NPrTT=    8368 LenC2=    2919 LenP2D=    7275.
 LDataN:  DoStor=T MaxTD1= 6 Len=  172
 NBasis=   172 RedAO= T EigKep=  3.59D-04  NBF=   172
 NBsUse=   172 1.00D-06 EigRej= -1.00D+00 NBFU=   172
 ExpMin= 9.52D-02 ExpMax= 2.70D+04 ExpMxC= 9.22D+02 IAcc=3 IRadAn=         5 AccDes= 0.00D+00
 Harris functional with IExCor= 1009 and IRadAn=       5 diagonalized for initial guess.
 HarFok:  IExCor= 1009 AccDes= 0.00D+00 IRadAn=         5 IDoV= 1 UseB2=F ITyADJ=14
 ICtDFT=  3500011 ScaDFX=  1.000000  1.000000  1.000000  1.000000
 FoFCou: FMM=F IPFlag=           0 FMFlag=      100000 FMFlg1=           0
         NFxFlg=           0 DoJE=T BraDBF=F KetDBF=T FulRan=T
         wScrn=  0.000000 ICntrl=       500 IOpCl=  0 I1Cent=   200000004 NGrid=           0
         NMat0=    1 NMatS0=      1 NMatT0=    0 NMatD0=    1 NMtDS0=    0 NMtDT0=    0
 Petite list used in FoFCou.
 Keep R1 ints in memory in canonical form, NReq=118869253.
 Requested convergence on RMS density matrix=1.00D-08 within 128 cycles.
 Requested convergence on MAX density matrix=1.00D-06.
 Requested convergence on             energy=1.00D-06.
 No special actions if energy rises.
 Integral accuracy reduced to 1.0D-05 until final iterations.
 Initial convergence to 1.0D-05 achieved.  Increase integral accuracy.
 SCF Done:  E(RM062X) =  -194.339773085     A.U. after   13 cycles
            NFock= 13  Conv=0.20D-08     -V/T= 2.0049

 **********************************************************************

            Population analysis using the SCF Density.

 **********************************************************************

 Orbital symmetries:
       Occupied  (A) (A) (A) (A) (A) (A) (A) (A) (A) (A) (A) (A)
                 (A) (A) (A) (A) (A)
       Virtual   (A) (A) (A) (A) (A) (A) (A) (A) (A) (A) (A) (A)
                 (A) (A) (A) (A) (A) (A) (A) (A) (A) (A) (A) (A)
                 (A) (A) (A) (A) (A) (A) (A) (A) (A) (A) (A) (A)
                 (A) (A) (A) (A) (A) (A) (A) (A) (A) (A) (A) (A)
                 (A) (A) (A) (A) (A) (A) (A) (A) (A) (A) (A) (A)
                 (A) (A) (A) (A) (A) (A) (A) (A) (A) (A) (A) (A)
                 (A) (A) (A) (A) (A) (A) (A) (A) (A) (A) (A) (A)
                 (A) (A) (A) (A) (A) (A) (A) (A) (A) (A) (A) (A)
                 (A) (A) (A) (A) (A) (A) (A) (A) (A) (A) (A) (A)
                 (A) (A) (A) (A) (A) (A) (A) (A) (A) (A) (A) (A)
                 (A) (A) (A) (A) (A) (A) (A) (A) (A) (A) (A) (A)
                 (A) (A) (A) (A) (A) (A) (A) (A) (A) (A) (A) (A)
                 (A) (A) (A) (A) (A) (A) (A) (A) (A) (A) (A)
 The electronic state is 1-A.
 Alpha  occ. eigenvalues --  -19.61870 -10.58612 -10.52494 -10.51853  -1.14374
 Alpha  occ. eigenvalues --   -0.87028  -0.78338  -0.67223  -0.58911  -0.52806
 Alpha  occ. eigenvalues --   -0.51010  -0.45696  -0.44779  -0.44020  -0.42347
 Alpha  occ. eigenvalues --   -0.38549  -0.34458
 Alpha virt. eigenvalues --    0.05775   0.09947   0.11614   0.12375   0.13438
 Alpha virt. eigenvalues --    0.14551   0.17082   0.18308   0.19152   0.20287
 Alpha virt. eigenvalues --    0.23308   0.24177   0.25638   0.29785   0.30398
 Alpha virt. eigenvalues --    0.34760   0.36398   0.37874   0.39926   0.42507
 Alpha virt. eigenvalues --    0.43574   0.45656   0.47365   0.48901   0.50998
 Alpha virt. eigenvalues --    0.51524   0.52956   0.54303   0.55238   0.57498
 Alpha virt. eigenvalues --    0.59847   0.64068   0.65269   0.69304   0.74759
 Alpha virt. eigenvalues --    0.82142   0.84590   0.87777   0.88970   0.91924
 Alpha virt. eigenvalues --    0.96217   1.00866   1.04116   1.08537   1.11070
 Alpha virt. eigenvalues --    1.15606   1.16739   1.19211   1.21040   1.28280
 Alpha virt. eigenvalues --    1.42707   1.47733   1.55224   1.55913   1.56603
 Alpha virt. eigenvalues --    1.58165   1.58929   1.60500   1.62050   1.63415
 Alpha virt. eigenvalues --    1.64875   1.70899   1.72487   1.76035   1.78322
 Alpha virt. eigenvalues --    1.85112   1.88423   1.90572   1.96327   1.98638
 Alpha virt. eigenvalues --    2.00051   2.10500   2.11564   2.13239   2.16028
 Alpha virt. eigenvalues --    2.20584   2.26879   2.27484   2.31873   2.34033
 Alpha virt. eigenvalues --    2.34597   2.35822   2.38429   2.41560   2.42620
 Alpha virt. eigenvalues --    2.47017   2.52307   2.55933   2.58948   2.60158
 Alpha virt. eigenvalues --    2.61190   2.62411   2.68548   2.72329   2.74888
 Alpha virt. eigenvalues --    2.79299   2.81699   2.83406   2.87371   2.95435
 Alpha virt. eigenvalues --    3.00405   3.01987   3.08843   3.09942   3.14091
 Alpha virt. eigenvalues --    3.15345   3.17332   3.20076   3.26075   3.27105
 Alpha virt. eigenvalues --    3.32693   3.34764   3.35916   3.40114   3.44872
 Alpha virt. eigenvalues --    3.48892   3.53917   3.55857   3.58295   3.60977
 Alpha virt. eigenvalues --    3.68410   3.78749   3.80972   3.91973   3.95538
 Alpha virt. eigenvalues --    3.98459   4.00641   4.04882   4.07842   4.26788
 Alpha virt. eigenvalues --    4.31209   4.36507   4.37775   4.42327   4.55745
 Alpha virt. eigenvalues --    4.58072   4.70788   4.74420   4.81091   5.30407
 Alpha virt. eigenvalues --    5.39965   5.49934   5.77481   5.79034   5.90688
 Alpha virt. eigenvalues --    6.27129   6.46696   6.69371   6.78206   6.96640
 Alpha virt. eigenvalues --    7.15812  22.43485  22.47768  22.63036  44.02957
          Condensed to atoms (all electrons):
               1          2          3          4          5          6
     1  C    5.099554   0.321396  -0.069360  -0.036423   0.398545   0.407521
     2  C    0.321396   4.901796   0.263969   0.251733  -0.040919  -0.045132
     3  C   -0.069360   0.263969   5.135585  -0.071147  -0.003657   0.014655
     4  O   -0.036423   0.251733  -0.071147   8.059668   0.007409  -0.003435
     5  H    0.398545  -0.040919  -0.003657   0.007409   0.547909  -0.020166
     6  H    0.407521  -0.045132   0.014655  -0.003435  -0.020166   0.550083
     7  H    0.401530  -0.026518  -0.013396   0.000508  -0.024665  -0.029009
     8  H   -0.071900   0.442173  -0.076667  -0.051086   0.001353  -0.009595
     9  H   -0.013350  -0.026376   0.398949   0.003325   0.001060  -0.000263
    10  H    0.011987  -0.038781   0.408464   0.003482  -0.000515  -0.000494
    11  H   -0.004034  -0.027978   0.392744   0.005051   0.000012  -0.000432
    12  H   -0.005334  -0.041795   0.015563   0.294457   0.000490   0.004741
               7          8          9         10         11         12
     1  C    0.401530  -0.071900  -0.013350   0.011987  -0.004034  -0.005334
     2  C   -0.026518   0.442173  -0.026376  -0.038781  -0.027978  -0.041795
     3  C   -0.013396  -0.076667   0.398949   0.408464   0.392744   0.015563
     4  O    0.000508  -0.051086   0.003325   0.003482   0.005051   0.294457
     5  H   -0.024665   0.001353   0.001060  -0.000515   0.000012   0.000490
     6  H   -0.029009  -0.009595  -0.000263  -0.000494  -0.000432   0.004741
     7  H    0.528491   0.010384   0.004690  -0.000235   0.000937  -0.001759
     8  H    0.010384   0.660219   0.010277  -0.007453  -0.001491  -0.006292
     9  H    0.004690   0.010277   0.534658  -0.023693  -0.027517  -0.000350
    10  H   -0.000235  -0.007453  -0.023693   0.522789  -0.020164  -0.000644
    11  H    0.000937  -0.001491  -0.027517  -0.020164   0.555733  -0.000851
    12  H   -0.001759  -0.006292  -0.000350  -0.000644  -0.000851   0.434462
 Mulliken charges:
               1
     1  C   -0.440131
     2  C    0.066432
     3  C   -0.395701
     4  O   -0.463542
     5  H    0.133146
     6  H    0.131528
     7  H    0.149043
     8  H    0.100078
     9  H    0.138589
    10  H    0.145257
    11  H    0.127989
    12  H    0.307312
 Sum of Mulliken charges =  -0.00000
 Mulliken charges with hydrogens summed into heavy atoms:
               1
     1  C   -0.026415
     2  C    0.166510
     3  C    0.016135
     4  O   -0.156230
 Electronic spatial extent (au):  <R**2>=            317.3776
 Charge=              0.0000 electrons
 Dipole moment (field-independent basis, Debye):
    X=             -1.1740    Y=             -0.8261    Z=              0.7734  Tot=              1.6306
 Quadrupole moment (field-independent basis, Debye-Ang):
   XX=            -25.2246   YY=            -27.4858   ZZ=            -26.9981
   XY=             -2.7062   XZ=             -0.2025   YZ=              0.8837
 Traceless Quadrupole moment (field-independent basis, Debye-Ang):
   XX=              1.3449   YY=             -0.9163   ZZ=             -0.4286
   XY=             -2.7062   XZ=             -0.2025   YZ=              0.8837
 Octapole moment (field-independent basis, Debye-Ang**2):
  XXX=             -2.5965  YYY=              5.3256  ZZZ=             -0.8674  XYY=             -5.2301
  XXY=              6.4000  XXZ=              0.6998  XZZ=             -0.2058  YZZ=              1.2184
  YYZ=              1.9385  XYZ=             -0.3273
 Hexadecapole moment (field-independent basis, Debye-Ang**3):
 XXXX=           -202.3313 YYYY=           -156.1344 ZZZZ=            -55.9151 XXXY=             -4.8713
 XXXZ=             -0.3891 YYYX=            -13.0126 YYYZ=             -1.9852 ZZZX=             -0.2281
 ZZZY=              1.2049 XXYY=            -56.5687 XXZZ=            -44.2717 YYZZ=            -38.0283
 XXYZ=              0.1664 YYXZ=              0.0641 ZZXY=             -0.7838
 N-N= 1.351196857787D+02 E-N=-7.235920132614D+02  KE= 1.934009428249D+02
   1 Symmetry operations used in ECPInt.
 ECPInt:  NShTT=    2926 NPrTT=    8368 LenC2=    2919 LenP2D=    7275.
 LDataN:  DoStor=T MaxTD1= 7 Len=  274
 Calling FoFJK, ICntrl=      2127 FMM=F ISym2X=0 I1Cent= 0 IOpClX= 0 NMat=1 NMatS=1 NMatT=0.
 ***** Axes restored to original set *****
 -------------------------------------------------------------------
 Center     Atomic                   Forces (Hartrees/Bohr)
 Number     Number              X              Y              Z
 -------------------------------------------------------------------
      1        6          -0.005618031    0.004660436   -0.002738844
      2        6           0.001095601   -0.007468621   -0.002195476
      3        6           0.005476985    0.006707804   -0.003545280
      4        8           0.000549788    0.002628637    0.001878011
      5        1           0.001159876   -0.002547736   -0.000921174
      6        1           0.002018401    0.000242053   -0.000473406
      7        1          -0.000122741    0.000016836    0.002250054
      8        1          -0.000364450   -0.000883187    0.003970819
      9        1           0.000083223   -0.000549665    0.002781299
     10        1          -0.002354595    0.000287063   -0.000569374
     11        1          -0.000436396   -0.002248689   -0.000546249
     12        1          -0.001487662   -0.000844928    0.000109620
 -------------------------------------------------------------------
 Cartesian Forces:  Max     0.007468621 RMS     0.002779706

 GradGradGradGradGradGradGradGradGradGradGradGradGradGradGradGradGradGrad
 Berny optimization.
 FormGI is forming the generalized inverse of G from B-inverse, IUseBI=4.
 Internal  Forces:  Max     0.004849900 RMS     0.001521785
 Search for a local minimum.
 Step number   1 out of a maximum of   61
 All quantities printed in internal units (Hartrees-Bohrs-Radians)
 Mixed Optimization -- RFO/linear search
 Second derivative matrix not updated -- first step.
 ITU=  0
     Eigenvalues ---    0.00386   0.00445   0.01485   0.04482   0.04928
     Eigenvalues ---    0.05641   0.05708   0.05719   0.05841   0.07285
     Eigenvalues ---    0.16000   0.16000   0.16000   0.16000   0.16000
     Eigenvalues ---    0.16000   0.16000   0.16487   0.19792   0.29543
     Eigenvalues ---    0.29959   0.33204   0.34890   0.35069   0.35194
     Eigenvalues ---    0.35222   0.35250   0.35255   0.43126   0.54837
 RFO step:  Lambda=-4.38199611D-04 EMin= 3.86174367D-03
 Linear search not attempted -- first point.
 Iteration  1 RMS(Cart)=  0.01034202 RMS(Int)=  0.00007242
 Iteration  2 RMS(Cart)=  0.00007965 RMS(Int)=  0.00001379
 Iteration  3 RMS(Cart)=  0.00000000 RMS(Int)=  0.00001379
 Variable       Old X    -DE/DX   Delta X   Delta X   Delta X     New X
                                 (Linear)    (Quad)   (Total)
    R1        2.88884  -0.00382   0.00000  -0.01291  -0.01291   2.87594
    R2        2.05316   0.00273   0.00000   0.00774   0.00774   2.06090
    R3        2.05853   0.00192   0.00000   0.00550   0.00550   2.06403
    R4        2.05562   0.00225   0.00000   0.00640   0.00640   2.06202
    R5        2.88045  -0.00485   0.00000  -0.01616  -0.01616   2.86428
    R6        2.67515   0.00241   0.00000   0.00559   0.00559   2.68074
    R7        2.08694  -0.00400   0.00000  -0.01202  -0.01202   2.07493
    R8        2.05361   0.00280   0.00000   0.00796   0.00796   2.06156
    R9        2.05271   0.00222   0.00000   0.00629   0.00629   2.05901
   R10        2.05263   0.00230   0.00000   0.00652   0.00652   2.05915
   R11        1.81977  -0.00170   0.00000  -0.00309  -0.00309   1.81668
    A1        1.92346   0.00127   0.00000   0.00824   0.00823   1.93169
    A2        1.93208   0.00090   0.00000   0.00523   0.00523   1.93731
    A3        1.91695  -0.00060   0.00000  -0.00366  -0.00365   1.91329
    A4        1.89348  -0.00114   0.00000  -0.00726  -0.00728   1.88620
    A5        1.90090  -0.00026   0.00000  -0.00089  -0.00088   1.90002
    A6        1.89636  -0.00021   0.00000  -0.00192  -0.00191   1.89445
    A7        1.94317   0.00234   0.00000   0.00999   0.00998   1.95314
    A8        1.94276  -0.00038   0.00000  -0.00298  -0.00294   1.93982
    A9        1.90000  -0.00057   0.00000   0.00125   0.00125   1.90126
   A10        1.86941  -0.00180   0.00000  -0.01255  -0.01254   1.85686
   A11        1.90291  -0.00062   0.00000  -0.00370  -0.00372   1.89919
   A12        1.90488   0.00101   0.00000   0.00788   0.00786   1.91274
   A13        1.91377  -0.00015   0.00000  -0.00120  -0.00121   1.91256
   A14        1.91336   0.00135   0.00000   0.00990   0.00989   1.92325
   A15        1.92610   0.00035   0.00000   0.00099   0.00098   1.92708
   A16        1.89316  -0.00032   0.00000   0.00046   0.00044   1.89360
   A17        1.90965  -0.00044   0.00000  -0.00563  -0.00563   1.90402
   A18        1.90746  -0.00082   0.00000  -0.00456  -0.00457   1.90289
   A19        1.90098  -0.00025   0.00000  -0.00158  -0.00158   1.89940
    D1        1.02922   0.00054   0.00000   0.02167   0.02167   1.05089
    D2        3.11372  -0.00043   0.00000   0.01048   0.01047   3.12419
    D3       -1.06903   0.00022   0.00000   0.01923   0.01921  -1.04982
    D4        3.12397   0.00052   0.00000   0.02133   0.02135  -3.13787
    D5       -1.07472  -0.00045   0.00000   0.01014   0.01014  -1.06458
    D6        1.02572   0.00020   0.00000   0.01889   0.01888   1.04460
    D7       -1.06509   0.00044   0.00000   0.01990   0.01991  -1.04518
    D8        1.01941  -0.00053   0.00000   0.00871   0.00871   1.02812
    D9        3.11985   0.00012   0.00000   0.01746   0.01745   3.13730
   D10        1.02889  -0.00043   0.00000  -0.00542  -0.00543   1.02346
   D11        3.10547  -0.00009   0.00000   0.00041   0.00040   3.10587
   D12       -1.07590  -0.00002   0.00000   0.00171   0.00171  -1.07419
   D13       -1.09872  -0.00020   0.00000   0.00038   0.00040  -1.09832
   D14        0.97786   0.00014   0.00000   0.00621   0.00623   0.98409
   D15        3.07967   0.00021   0.00000   0.00751   0.00754   3.08721
   D16        3.12542  -0.00008   0.00000  -0.00003  -0.00005   3.12537
   D17       -1.08118   0.00026   0.00000   0.00580   0.00578  -1.07540
   D18        1.02063   0.00033   0.00000   0.00710   0.00709   1.02772
   D19        0.91148  -0.00046   0.00000   0.00893   0.00891   0.92039
   D20        3.03935   0.00101   0.00000   0.01126   0.01130   3.05065
   D21       -1.18608  -0.00018   0.00000   0.00409   0.00406  -1.18202
         Item               Value     Threshold  Converged?
 Maximum Force            0.004850     0.000450     NO 
 RMS     Force            0.001522     0.000300     NO 
 Maximum Displacement     0.032471     0.001800     NO 
 RMS     Displacement     0.010350     0.001200     NO 
 Predicted change in Energy=-2.202157D-04
 GradGradGradGradGradGradGradGradGradGradGradGradGradGradGradGradGradGrad

                          Input orientation:                          
 ---------------------------------------------------------------------
 Center     Atomic      Atomic             Coordinates (Angstroms)
 Number     Number       Type             X           Y           Z
 ---------------------------------------------------------------------
      1          6           0        1.265262   -0.719249    0.107204
      2          6           0        0.004642   -0.013781   -0.371619
      3          6           0       -1.251629   -0.718500    0.100126
      4          8           0       -0.064720    1.309631    0.134497
      5          1           0        1.302183   -1.741216   -0.271728
      6          1           0        2.160743   -0.197496   -0.237579
      7          1           0        1.277977   -0.746754    1.197957
      8          1           0        0.005571    0.011415   -1.469334
      9          1           0       -1.257299   -0.765191    1.190043
     10          1           0       -2.135224   -0.171294   -0.226994
     11          1           0       -1.292468   -1.731125   -0.300209
     12          1           0        0.755301    1.765411   -0.075314
 ---------------------------------------------------------------------
                    Distance matrix (angstroms):
                    1          2          3          4          5
     1  C    0.000000
     2  C    1.521880   0.000000
     3  C    2.516900   1.515714   0.000000
     4  O    2.426097   1.418585   2.350160   0.000000
     5  H    1.090582   2.162781   2.776000   3.367656   0.000000
     6  H    1.092240   2.168061   3.468396   2.713403   1.766738
     7  H    1.091174   2.149930   2.757705   2.676285   1.774687
     8  H    2.146197   1.098004   2.139282   2.064601   2.487403
     9  H    2.745535   2.143805   1.090932   2.615589   3.104891
    10  H    3.460526   2.150523   1.089579   2.571148   3.779209
    11  H    2.780622   2.153338   1.089654   3.307950   2.594827
    12  H    2.543012   1.953665   3.198181   0.961348   3.554447
                    6          7          8          9         10
     6  H    0.000000
     7  H    1.772491   0.000000
     8  H    2.491110   3.050946   0.000000
     9  H    3.747452   2.535355   3.044707   0.000000
    10  H    4.296060   3.743204   2.481893   1.769593   0.000000
    11  H    3.778969   3.133795   2.467428   1.776266   1.774449
    12  H    2.419629   2.864504   2.362602   3.472122   3.482666
                   11         12
    11  H    0.000000
    12  H    4.058288   0.000000
 Stoichiometry    C3H8O
 Framework group  C1[X(C3H8O)]
 Deg. of freedom    30
 Full point group                 C1      NOp   1
 Largest Abelian subgroup         C1      NOp   1
 Largest concise Abelian subgroup C1      NOp   1
                         Standard orientation:                         
 ---------------------------------------------------------------------
 Center     Atomic      Atomic             Coordinates (Angstroms)
 Number     Number       Type             X           Y           Z
 ---------------------------------------------------------------------
      1          6           0       -1.180183   -0.789371   -0.102307
      2          6           0        0.002455    0.045070    0.368008
      3          6           0        1.324028   -0.537145   -0.092274
      4          8           0       -0.059369    1.361623   -0.156633
      5          1           0       -1.115852   -1.804545    0.290952
      6          1           0       -2.124173   -0.354921    0.234031
      7          1           0       -1.187273   -0.833178   -1.192577
      8          1           0       -0.003818    0.085313    1.465257
      9          1           0        1.337144   -0.598192   -1.181417
     10          1           0        2.147720    0.100073    0.228140
     11          1           0        1.464742   -1.534961    0.322345
     12          1           0       -0.921340    1.736096    0.045765
 ---------------------------------------------------------------------
 Rotational constants (GHZ):           8.7438189           8.1344286           4.8195123
 Standard basis: def2TZVP (5D, 7F)
 There are   192 symmetry adapted cartesian basis functions of A   symmetry.
 There are   172 symmetry adapted basis functions of A   symmetry.
   172 basis functions,   268 primitive gaussians,   192 cartesian basis functions
    17 alpha electrons       17 beta electrons
       nuclear repulsion energy       135.3324519791 Hartrees.
 NAtoms=   12 NActive=   12 NUniq=   12 SFac= 1.00D+00 NAtFMM=   60 NAOKFM=F Big=F
 Integral buffers will be    131072 words long.
 Raffenetti 2 integral format.
 Two-electron integral symmetry is turned on.
 One-electron integrals computed using PRISM.
   1 Symmetry operations used in ECPInt.
 ECPInt:  NShTT=    2926 NPrTT=    8368 LenC2=    2919 LenP2D=    7277.
 LDataN:  DoStor=T MaxTD1= 6 Len=  172
 NBasis=   172 RedAO= T EigKep=  3.52D-04  NBF=   172
 NBsUse=   172 1.00D-06 EigRej= -1.00D+00 NBFU=   172
 Initial guess from the checkpoint file:  "/home/svss/projects/Project-Philicity/GS/hydrocarbon/set-1/GS/mol_1_hc/mol_1_hc.chk"
 B after Tr=    -0.000000   -0.000000   -0.000000
         Rot=    0.999882   -0.001677    0.000314    0.015246 Ang=  -1.76 deg.
 ExpMin= 9.52D-02 ExpMax= 2.70D+04 ExpMxC= 9.22D+02 IAcc=3 IRadAn=         5 AccDes= 0.00D+00
 Harris functional with IExCor= 1009 and IRadAn=       5 diagonalized for initial guess.
 HarFok:  IExCor= 1009 AccDes= 0.00D+00 IRadAn=         5 IDoV= 1 UseB2=F ITyADJ=14
 ICtDFT=  3500011 ScaDFX=  1.000000  1.000000  1.000000  1.000000
 FoFCou: FMM=F IPFlag=           0 FMFlag=      100000 FMFlg1=           0
         NFxFlg=           0 DoJE=T BraDBF=F KetDBF=T FulRan=T
         wScrn=  0.000000 ICntrl=       500 IOpCl=  0 I1Cent=   200000004 NGrid=           0
         NMat0=    1 NMatS0=      1 NMatT0=    0 NMatD0=    1 NMtDS0=    0 NMtDT0=    0
 Petite list used in FoFCou.
 Keep R1 ints in memory in canonical form, NReq=118869253.
 Requested convergence on RMS density matrix=1.00D-08 within 128 cycles.
 Requested convergence on MAX density matrix=1.00D-06.
 Requested convergence on             energy=1.00D-06.
 No special actions if energy rises.
 Integral accuracy reduced to 1.0D-05 until final iterations.
 Initial convergence to 1.0D-05 achieved.  Increase integral accuracy.
 SCF Done:  E(RM062X) =  -194.340013642     A.U. after   10 cycles
            NFock= 10  Conv=0.36D-08     -V/T= 2.0048
   1 Symmetry operations used in ECPInt.
 ECPInt:  NShTT=    2926 NPrTT=    8368 LenC2=    2919 LenP2D=    7277.
 LDataN:  DoStor=T MaxTD1= 7 Len=  274
 Calling FoFJK, ICntrl=      2127 FMM=F ISym2X=0 I1Cent= 0 IOpClX= 0 NMat=1 NMatS=1 NMatT=0.
 ***** Axes restored to original set *****
 -------------------------------------------------------------------
 Center     Atomic                   Forces (Hartrees/Bohr)
 Number     Number              X              Y              Z
 -------------------------------------------------------------------
      1        6          -0.001410664    0.001041260   -0.000284382
      2        6           0.000049647   -0.002750208   -0.000220241
      3        6           0.000788635    0.000937872   -0.000549492
      4        8           0.000419971    0.001451162    0.000535925
      5        1           0.000412248   -0.000124441    0.000021233
      6        1           0.000174092   -0.000151503    0.000031324
      7        1           0.000260068   -0.000165591    0.000123401
      8        1           0.000038099    0.000500909    0.000096245
      9        1          -0.000259831   -0.000253755    0.000145837
     10        1           0.000008096   -0.000264363    0.000027899
     11        1          -0.000444014   -0.000436516    0.000217067
     12        1          -0.000036348    0.000215173   -0.000144816
 -------------------------------------------------------------------
 Cartesian Forces:  Max     0.002750208 RMS     0.000676633

 GradGradGradGradGradGradGradGradGradGradGradGradGradGradGradGradGradGrad
 Berny optimization.
 Using GEDIIS/GDIIS optimizer.
 FormGI is forming the generalized inverse of G from B-inverse, IUseBI=4.
 Internal  Forces:  Max     0.001675933 RMS     0.000345502
 Search for a local minimum.
 Step number   2 out of a maximum of   61
 All quantities printed in internal units (Hartrees-Bohrs-Radians)
 Mixed Optimization -- En-DIIS/RFO-DIIS
 Update second derivatives using D2CorX and points    1    2
 DE= -2.41D-04 DEPred=-2.20D-04 R= 1.09D+00
 TightC=F SS=  1.41D+00  RLast= 6.80D-02 DXNew= 5.0454D-01 2.0412D-01
 Trust test= 1.09D+00 RLast= 6.80D-02 DXMaxT set to 3.00D-01
 ITU=  1  0
 Use linear search instead of GDIIS.
     Eigenvalues ---    0.00382   0.00444   0.01464   0.04378   0.05084
     Eigenvalues ---    0.05582   0.05684   0.05699   0.05812   0.07386
     Eigenvalues ---    0.14467   0.16000   0.16000   0.16000   0.16000
     Eigenvalues ---    0.16000   0.16221   0.16767   0.19976   0.28193
     Eigenvalues ---    0.30339   0.33325   0.34666   0.34930   0.35102
     Eigenvalues ---    0.35207   0.35238   0.35638   0.43215   0.55056
 RFO step:  Lambda=-3.64919652D-05 EMin= 3.81823889D-03
 Quartic linear search produced a step of  0.10592.
 Iteration  1 RMS(Cart)=  0.00559183 RMS(Int)=  0.00002402
 Iteration  2 RMS(Cart)=  0.00002262 RMS(Int)=  0.00000401
 Iteration  3 RMS(Cart)=  0.00000000 RMS(Int)=  0.00000401
 Variable       Old X    -DE/DX   Delta X   Delta X   Delta X     New X
                                 (Linear)    (Quad)   (Total)
    R1        2.87594  -0.00078  -0.00137  -0.00262  -0.00398   2.87195
    R2        2.06090   0.00012   0.00082   0.00020   0.00102   2.06193
    R3        2.06403   0.00006   0.00058   0.00006   0.00065   2.06468
    R4        2.06202   0.00013   0.00068   0.00026   0.00093   2.06295
    R5        2.86428  -0.00012  -0.00171  -0.00005  -0.00176   2.86252
    R6        2.68074   0.00168   0.00059   0.00416   0.00476   2.68549
    R7        2.07493  -0.00008  -0.00127   0.00000  -0.00127   2.07366
    R8        2.06156   0.00016   0.00084   0.00031   0.00115   2.06272
    R9        2.05901  -0.00015   0.00067  -0.00061   0.00005   2.05906
   R10        2.05915   0.00034   0.00069   0.00092   0.00161   2.06076
   R11        1.81668   0.00010  -0.00033   0.00028  -0.00005   1.81664
    A1        1.93169   0.00044   0.00087   0.00284   0.00370   1.93539
    A2        1.93731   0.00013   0.00055   0.00038   0.00093   1.93824
    A3        1.91329   0.00034  -0.00039   0.00279   0.00240   1.91569
    A4        1.88620  -0.00037  -0.00077  -0.00308  -0.00386   1.88234
    A5        1.90002  -0.00032  -0.00009  -0.00146  -0.00156   1.89846
    A6        1.89445  -0.00024  -0.00020  -0.00166  -0.00187   1.89258
    A7        1.95314   0.00025   0.00106   0.00256   0.00361   1.95676
    A8        1.93982  -0.00038  -0.00031  -0.00276  -0.00307   1.93674
    A9        1.90126   0.00010   0.00013   0.00140   0.00152   1.90278
   A10        1.85686   0.00023  -0.00133   0.00206   0.00073   1.85760
   A11        1.89919  -0.00005  -0.00039   0.00186   0.00146   1.90065
   A12        1.91274  -0.00017   0.00083  -0.00523  -0.00440   1.90834
   A13        1.91256   0.00034  -0.00013   0.00235   0.00222   1.91478
   A14        1.92325   0.00008   0.00105   0.00035   0.00139   1.92464
   A15        1.92708   0.00067   0.00010   0.00462   0.00472   1.93180
   A16        1.89360  -0.00021   0.00005  -0.00142  -0.00138   1.89222
   A17        1.90402  -0.00052  -0.00060  -0.00352  -0.00412   1.89989
   A18        1.90289  -0.00039  -0.00048  -0.00255  -0.00304   1.89984
   A19        1.89940   0.00023  -0.00017   0.00161   0.00144   1.90084
    D1        1.05089   0.00007   0.00230   0.00741   0.00972   1.06061
    D2        3.12419   0.00028   0.00111   0.00986   0.01097   3.13515
    D3       -1.04982  -0.00010   0.00203   0.00253   0.00456  -1.04526
    D4       -3.13787  -0.00002   0.00226   0.00567   0.00793  -3.12994
    D5       -1.06458   0.00019   0.00107   0.00811   0.00918  -1.05540
    D6        1.04460  -0.00019   0.00200   0.00078   0.00278   1.04738
    D7       -1.04518  -0.00002   0.00211   0.00565   0.00776  -1.03742
    D8        1.02812   0.00019   0.00092   0.00809   0.00901   1.03713
    D9        3.13730  -0.00019   0.00185   0.00076   0.00261   3.13990
   D10        1.02346  -0.00012  -0.00058   0.00481   0.00424   1.02770
   D11        3.10587  -0.00011   0.00004   0.00474   0.00478   3.11066
   D12       -1.07419  -0.00011   0.00018   0.00477   0.00495  -1.06924
   D13       -1.09832   0.00004   0.00004   0.00535   0.00539  -1.09293
   D14        0.98409   0.00005   0.00066   0.00528   0.00594   0.99003
   D15        3.08721   0.00005   0.00080   0.00531   0.00611   3.09332
   D16        3.12537   0.00014  -0.00001   0.00942   0.00942   3.13479
   D17       -1.07540   0.00014   0.00061   0.00935   0.00996  -1.06543
   D18        1.02772   0.00015   0.00075   0.00938   0.01013   1.03785
   D19        0.92039  -0.00004   0.00094   0.00643   0.00738   0.92777
   D20        3.05065   0.00020   0.00120   0.00926   0.01046   3.06110
   D21       -1.18202   0.00019   0.00043   0.00989   0.01031  -1.17171
         Item               Value     Threshold  Converged?
 Maximum Force            0.001676     0.000450     NO 
 RMS     Force            0.000346     0.000300     NO 
 Maximum Displacement     0.016281     0.001800     NO 
 RMS     Displacement     0.005591     0.001200     NO 
 Predicted change in Energy=-2.058396D-05
 GradGradGradGradGradGradGradGradGradGradGradGradGradGradGradGradGradGrad

                          Input orientation:                          
 ---------------------------------------------------------------------
 Center     Atomic      Atomic             Coordinates (Angstroms)
 Number     Number       Type             X           Y           Z
 ---------------------------------------------------------------------
      1          6           0        1.264956   -0.719294    0.106269
      2          6           0        0.004698   -0.016378   -0.370563
      3          6           0       -1.252484   -0.717953    0.100442
      4          8           0       -0.060866    1.309545    0.136547
      5          1           0        1.310799   -1.739300   -0.278490
      6          1           0        2.160239   -0.192847   -0.232928
      7          1           0        1.277645   -0.754446    1.197296
      8          1           0        0.005213    0.013689   -1.467483
      9          1           0       -1.263175   -0.761395    1.191067
     10          1           0       -2.135788   -0.172839   -0.231020
     11          1           0       -1.297085   -1.733955   -0.293200
     12          1           0        0.756187    1.767023   -0.080888
 ---------------------------------------------------------------------
                    Distance matrix (angstroms):
                    1          2          3          4          5
     1  C    0.000000
     2  C    1.519773   0.000000
     3  C    2.517447   1.514781   0.000000
     4  O    2.423821   1.421102   2.352022   0.000000
     5  H    1.091124   2.163986   2.785167   3.368853   0.000000
     6  H    1.092582   2.167128   3.468942   2.706844   1.764976
     7  H    1.091668   2.150191   2.757893   2.678966   1.774537
     8  H    2.144973   1.097332   2.139040   2.063134   2.488218
     9  H    2.751364   2.145051   1.091542   2.616553   3.121095
    10  H    3.460843   2.150728   1.089607   2.576406   3.786161
    11  H    2.784450   2.156547   1.090506   3.312976   2.607930
    12  H    2.544729   1.956825   3.200429   0.961322   3.555410
                    6          7          8          9         10
     6  H    0.000000
     7  H    1.771979   0.000000
     8  H    2.492172   3.051256   0.000000
     9  H    3.751103   2.540838   3.045891   0.000000
    10  H    4.296074   3.745648   2.479419   1.769232   0.000000
    11  H    3.785728   3.132132   2.475718   1.774844   1.773238
    12  H    2.415692   2.874627   2.358132   3.476865   3.485559
                   11         12
    11  H    0.000000
    12  H    4.064215   0.000000
 Stoichiometry    C3H8O
 Framework group  C1[X(C3H8O)]
 Deg. of freedom    30
 Full point group                 C1      NOp   1
 Largest Abelian subgroup         C1      NOp   1
 Largest concise Abelian subgroup C1      NOp   1
                         Standard orientation:                         
 ---------------------------------------------------------------------
 Center     Atomic      Atomic             Coordinates (Angstroms)
 Number     Number       Type             X           Y           Z
 ---------------------------------------------------------------------
      1          6           0       -1.172987   -0.798153   -0.102097
      2          6           0        0.002686    0.042669    0.367498
      3          6           0        1.329645   -0.525650   -0.091581
      4          8           0       -0.073183    1.361077   -0.157454
      5          1           0       -1.110038   -1.811954    0.296396
      6          1           0       -2.120863   -0.366710    0.228242
      7          1           0       -1.178195   -0.848979   -1.192568
      8          1           0       -0.004707    0.087096    1.463906
      9          1           0        1.348574   -0.582194   -1.181493
     10          1           0        2.148028    0.115775    0.234097
     11          1           0        1.482052   -1.525613    0.315909
     12          1           0       -0.935454    1.730762    0.052219
 ---------------------------------------------------------------------
 Rotational constants (GHZ):           8.7434071           8.1286044           4.8166815
 Standard basis: def2TZVP (5D, 7F)
 There are   192 symmetry adapted cartesian basis functions of A   symmetry.
 There are   172 symmetry adapted basis functions of A   symmetry.
   172 basis functions,   268 primitive gaussians,   192 cartesian basis functions
    17 alpha electrons       17 beta electrons
       nuclear repulsion energy       135.2989300142 Hartrees.
 NAtoms=   12 NActive=   12 NUniq=   12 SFac= 1.00D+00 NAtFMM=   60 NAOKFM=F Big=F
 Integral buffers will be    131072 words long.
 Raffenetti 2 integral format.
 Two-electron integral symmetry is turned on.
 One-electron integrals computed using PRISM.
   1 Symmetry operations used in ECPInt.
 ECPInt:  NShTT=    2926 NPrTT=    8368 LenC2=    2919 LenP2D=    7278.
 LDataN:  DoStor=T MaxTD1= 6 Len=  172
 NBasis=   172 RedAO= T EigKep=  3.51D-04  NBF=   172
 NBsUse=   172 1.00D-06 EigRej= -1.00D+00 NBFU=   172
 Initial guess from the checkpoint file:  "/home/svss/projects/Project-Philicity/GS/hydrocarbon/set-1/GS/mol_1_hc/mol_1_hc.chk"
 B after Tr=     0.000000    0.000000    0.000000
         Rot=    0.999991   -0.000043    0.000189   -0.004261 Ang=  -0.49 deg.
 Keep R1 ints in memory in canonical form, NReq=118869253.
 Requested convergence on RMS density matrix=1.00D-08 within 128 cycles.
 Requested convergence on MAX density matrix=1.00D-06.
 Requested convergence on             energy=1.00D-06.
 No special actions if energy rises.
 SCF Done:  E(RM062X) =  -194.340036720     A.U. after    8 cycles
            NFock=  8  Conv=0.91D-08     -V/T= 2.0049
   1 Symmetry operations used in ECPInt.
 ECPInt:  NShTT=    2926 NPrTT=    8368 LenC2=    2919 LenP2D=    7278.
 LDataN:  DoStor=T MaxTD1= 7 Len=  274
 Calling FoFJK, ICntrl=      2127 FMM=F ISym2X=0 I1Cent= 0 IOpClX= 0 NMat=1 NMatS=1 NMatT=0.
 ***** Axes restored to original set *****
 -------------------------------------------------------------------
 Center     Atomic                   Forces (Hartrees/Bohr)
 Number     Number              X              Y              Z
 -------------------------------------------------------------------
      1        6          -0.000051079   -0.000092162    0.000189497
      2        6           0.000181283   -0.000538999   -0.000176935
      3        6          -0.000065745    0.000110283    0.000107432
      4        8          -0.000233435    0.000376070    0.000480413
      5        1           0.000030692    0.000118682    0.000092395
      6        1          -0.000106965   -0.000034917    0.000040396
      7        1           0.000090708   -0.000048711   -0.000178457
      8        1          -0.000003528    0.000113102   -0.000260395
      9        1          -0.000036702   -0.000005992   -0.000191314
     10        1           0.000114650   -0.000074665    0.000026190
     11        1           0.000042426    0.000141872    0.000093416
     12        1           0.000037695   -0.000064562   -0.000222639
 -------------------------------------------------------------------
 Cartesian Forces:  Max     0.000538999 RMS     0.000179549

 GradGradGradGradGradGradGradGradGradGradGradGradGradGradGradGradGradGrad
 Berny optimization.
 Using GEDIIS/GDIIS optimizer.
 FormGI is forming the generalized inverse of G from B-inverse, IUseBI=4.
 Internal  Forces:  Max     0.000392333 RMS     0.000108201
 Search for a local minimum.
 Step number   3 out of a maximum of   61
 All quantities printed in internal units (Hartrees-Bohrs-Radians)
 Mixed Optimization -- En-DIIS/RFO-DIIS
 Swapping is turned off.
 Update second derivatives using D2CorX and points    1    2    3
 DE= -2.31D-05 DEPred=-2.06D-05 R= 1.12D+00
 TightC=F SS=  1.41D+00  RLast= 3.83D-02 DXNew= 5.0454D-01 1.1476D-01
 Trust test= 1.12D+00 RLast= 3.83D-02 DXMaxT set to 3.00D-01
 ITU=  1  1  0
     Eigenvalues ---    0.00379   0.00428   0.01296   0.04148   0.05159
     Eigenvalues ---    0.05550   0.05651   0.05665   0.05787   0.07444
     Eigenvalues ---    0.13994   0.16000   0.16000   0.16000   0.16000
     Eigenvalues ---    0.16185   0.16404   0.18029   0.19958   0.28349
     Eigenvalues ---    0.30439   0.33632   0.34918   0.35098   0.35203
     Eigenvalues ---    0.35230   0.35413   0.37153   0.41465   0.55063
 En-DIIS/RFO-DIIS/Sim-DIIS IScMMF=       -3 using points:     3    2
 RFO step:  Lambda=-5.72209216D-06.
 DidBck=F Rises=F RFO-DIIS coefs:    1.43535   -0.43535
 Iteration  1 RMS(Cart)=  0.00244729 RMS(Int)=  0.00000820
 Iteration  2 RMS(Cart)=  0.00000825 RMS(Int)=  0.00000183
 Iteration  3 RMS(Cart)=  0.00000000 RMS(Int)=  0.00000183
 Variable       Old X    -DE/DX   Delta X   Delta X   Delta X     New X
                                 (Linear)    (Quad)   (Total)
    R1        2.87195   0.00004  -0.00173   0.00116  -0.00058   2.87138
    R2        2.06193  -0.00014   0.00045  -0.00062  -0.00017   2.06175
    R3        2.06468  -0.00012   0.00028  -0.00047  -0.00019   2.06449
    R4        2.06295  -0.00018   0.00041  -0.00073  -0.00033   2.06263
    R5        2.86252  -0.00011  -0.00077  -0.00020  -0.00097   2.86155
    R6        2.68549   0.00039   0.00207  -0.00038   0.00169   2.68718
    R7        2.07366   0.00026  -0.00055   0.00105   0.00049   2.07415
    R8        2.06272  -0.00019   0.00050  -0.00081  -0.00031   2.06241
    R9        2.05906  -0.00014   0.00002  -0.00033  -0.00030   2.05875
   R10        2.06076  -0.00017   0.00070  -0.00091  -0.00021   2.06054
   R11        1.81664   0.00005  -0.00002   0.00006   0.00003   1.81667
    A1        1.93539   0.00006   0.00161  -0.00057   0.00104   1.93643
    A2        1.93824  -0.00007   0.00041  -0.00076  -0.00035   1.93789
    A3        1.91569   0.00015   0.00104   0.00027   0.00131   1.91701
    A4        1.88234  -0.00001  -0.00168   0.00094  -0.00074   1.88160
    A5        1.89846  -0.00009  -0.00068  -0.00000  -0.00069   1.89777
    A6        1.89258  -0.00005  -0.00081   0.00016  -0.00065   1.89193
    A7        1.95676   0.00002   0.00157  -0.00091   0.00066   1.95742
    A8        1.93674   0.00005  -0.00134   0.00091  -0.00043   1.93631
    A9        1.90278   0.00003   0.00066   0.00062   0.00128   1.90406
   A10        1.85760  -0.00012   0.00032  -0.00182  -0.00149   1.85610
   A11        1.90065   0.00003   0.00063  -0.00002   0.00061   1.90126
   A12        1.90834  -0.00001  -0.00192   0.00121  -0.00070   1.90763
   A13        1.91478   0.00006   0.00096  -0.00031   0.00065   1.91543
   A14        1.92464  -0.00001   0.00061  -0.00023   0.00038   1.92502
   A15        1.93180  -0.00003   0.00206  -0.00177   0.00029   1.93209
   A16        1.89222  -0.00002  -0.00060   0.00044  -0.00016   1.89206
   A17        1.89989  -0.00003  -0.00179   0.00092  -0.00088   1.89901
   A18        1.89984   0.00002  -0.00132   0.00102  -0.00031   1.89953
   A19        1.90084  -0.00030   0.00063  -0.00263  -0.00200   1.89884
    D1        1.06061   0.00006   0.00423  -0.00156   0.00268   1.06328
    D2        3.13515  -0.00003   0.00477  -0.00385   0.00093   3.13608
    D3       -1.04526   0.00000   0.00199  -0.00137   0.00062  -1.04464
    D4       -3.12994   0.00005   0.00345  -0.00126   0.00220  -3.12775
    D5       -1.05540  -0.00005   0.00400  -0.00355   0.00045  -1.05494
    D6        1.04738  -0.00001   0.00121  -0.00107   0.00014   1.04752
    D7       -1.03742   0.00004   0.00338  -0.00137   0.00201  -1.03541
    D8        1.03713  -0.00005   0.00392  -0.00366   0.00026   1.03739
    D9        3.13990  -0.00002   0.00113  -0.00118  -0.00005   3.13986
   D10        1.02770  -0.00002   0.00185   0.00122   0.00306   1.03076
   D11        3.11066  -0.00000   0.00208   0.00143   0.00351   3.11417
   D12       -1.06924  -0.00000   0.00216   0.00140   0.00355  -1.06569
   D13       -1.09293  -0.00001   0.00235   0.00183   0.00418  -1.08874
   D14        0.99003  -0.00000   0.00259   0.00204   0.00463   0.99466
   D15        3.09332  -0.00000   0.00266   0.00202   0.00468   3.09800
   D16        3.13479   0.00005   0.00410   0.00140   0.00551   3.14030
   D17       -1.06543   0.00006   0.00434   0.00161   0.00595  -1.05948
   D18        1.03785   0.00006   0.00441   0.00158   0.00600   1.04385
   D19        0.92777   0.00011   0.00321   0.00523   0.00844   0.93622
   D20        3.06110   0.00010   0.00455   0.00349   0.00804   3.06915
   D21       -1.17171   0.00006   0.00449   0.00309   0.00758  -1.16413
         Item               Value     Threshold  Converged?
 Maximum Force            0.000392     0.000450     YES
 RMS     Force            0.000108     0.000300     YES
 Maximum Displacement     0.006591     0.001800     NO 
 RMS     Displacement     0.002448     0.001200     NO 
 Predicted change in Energy=-2.861744D-06
 GradGradGradGradGradGradGradGradGradGradGradGradGradGradGradGradGradGrad

                          Input orientation:                          
 ---------------------------------------------------------------------
 Center     Atomic      Atomic             Coordinates (Angstroms)
 Number     Number       Type             X           Y           Z
 ---------------------------------------------------------------------
      1          6           0        1.264983   -0.720160    0.106098
      2          6           0        0.005036   -0.016935   -0.370127
      3          6           0       -1.252338   -0.717244    0.100602
      4          8           0       -0.060583    1.308926    0.139637
      5          1           0        1.312692   -1.739312   -0.280432
      6          1           0        2.159995   -0.192504   -0.231619
      7          1           0        1.278296   -0.757934    1.196858
      8          1           0        0.004978    0.015812   -1.467231
      9          1           0       -1.265226   -0.758377    1.191130
     10          1           0       -2.135327   -0.173621   -0.233610
     11          1           0       -1.296305   -1.734307   -0.290047
     12          1           0        0.754140    1.767506   -0.084209
 ---------------------------------------------------------------------
                    Distance matrix (angstroms):
                    1          2          3          4          5
     1  C    0.000000
     2  C    1.519468   0.000000
     3  C    2.517329   1.514268   0.000000
     4  O    2.423930   1.421995   2.350993   0.000000
     5  H    1.091033   2.164392   2.787326   3.369584   0.000000
     6  H    1.092483   2.166531   3.468391   2.706121   1.764347
     7  H    1.091495   2.150747   2.758177   2.679967   1.773886
     8  H    2.145840   1.097593   2.139232   2.063605   2.489792
     9  H    2.753309   2.144953   1.091379   2.613531   3.126242
    10  H    3.460666   2.150427   1.089446   2.577173   3.787138
    11  H    2.783096   2.156216   1.090393   3.312538   2.609019
    12  H    2.546695   1.956306   3.199077   0.961340   3.556438
                    6          7          8          9         10
     6  H    0.000000
     7  H    1.771341   0.000000
     8  H    2.492836   3.052440   0.000000
     9  H    3.751875   2.543528   3.046255   0.000000
    10  H    4.295363   3.747063   2.477622   1.768869   0.000000
    11  H    3.785047   3.129339   2.478309   1.774060   1.772818
    12  H    2.416567   2.879882   2.354236   3.476264   3.484151
                   11         12
    11  H    0.000000
    12  H    4.063175   0.000000
 Stoichiometry    C3H8O
 Framework group  C1[X(C3H8O)]
 Deg. of freedom    30
 Full point group                 C1      NOp   1
 Largest Abelian subgroup         C1      NOp   1
 Largest concise Abelian subgroup C1      NOp   1
                         Standard orientation:                         
 ---------------------------------------------------------------------
 Center     Atomic      Atomic             Coordinates (Angstroms)
 Number     Number       Type             X           Y           Z
 ---------------------------------------------------------------------
      1          6           0       -1.176034   -0.793884   -0.102244
      2          6           0        0.002615    0.041952    0.367807
      3          6           0        1.327404   -0.530019   -0.091314
      4          8           0       -0.067718    1.361090   -0.158502
      5          1           0       -1.119237   -1.807650    0.297010
      6          1           0       -2.122063   -0.357707    0.226842
      7          1           0       -1.181577   -0.846274   -1.192467
      8          1           0       -0.004526    0.088047    1.464408
      9          1           0        1.348267   -0.583031   -1.181205
     10          1           0        2.148153    0.106269    0.237930
     11          1           0        1.475152   -1.532156    0.312231
     12          1           0       -0.926339    1.735485    0.057769
 ---------------------------------------------------------------------
 Rotational constants (GHZ):           8.7453713           8.1273668           4.8175432
 Standard basis: def2TZVP (5D, 7F)
 There are   192 symmetry adapted cartesian basis functions of A   symmetry.
 There are   172 symmetry adapted basis functions of A   symmetry.
   172 basis functions,   268 primitive gaussians,   192 cartesian basis functions
    17 alpha electrons       17 beta electrons
       nuclear repulsion energy       135.2991778408 Hartrees.
 NAtoms=   12 NActive=   12 NUniq=   12 SFac= 1.00D+00 NAtFMM=   60 NAOKFM=F Big=F
 Integral buffers will be    131072 words long.
 Raffenetti 2 integral format.
 Two-electron integral symmetry is turned on.
 One-electron integrals computed using PRISM.
   1 Symmetry operations used in ECPInt.
 ECPInt:  NShTT=    2926 NPrTT=    8368 LenC2=    2919 LenP2D=    7279.
 LDataN:  DoStor=T MaxTD1= 6 Len=  172
 NBasis=   172 RedAO= T EigKep=  3.51D-04  NBF=   172
 NBsUse=   172 1.00D-06 EigRej= -1.00D+00 NBFU=   172
 Initial guess from the checkpoint file:  "/home/svss/projects/Project-Philicity/GS/hydrocarbon/set-1/GS/mol_1_hc/mol_1_hc.chk"
 B after Tr=    -0.000000    0.000000   -0.000000
         Rot=    0.999998   -0.000092    0.000094    0.001944 Ang=  -0.22 deg.
 Keep R1 ints in memory in canonical form, NReq=118869253.
 Requested convergence on RMS density matrix=1.00D-08 within 128 cycles.
 Requested convergence on MAX density matrix=1.00D-06.
 Requested convergence on             energy=1.00D-06.
 No special actions if energy rises.
 SCF Done:  E(RM062X) =  -194.340040279     A.U. after    8 cycles
            NFock=  8  Conv=0.45D-08     -V/T= 2.0048
   1 Symmetry operations used in ECPInt.
 ECPInt:  NShTT=    2926 NPrTT=    8368 LenC2=    2919 LenP2D=    7279.
 LDataN:  DoStor=T MaxTD1= 7 Len=  274
 Calling FoFJK, ICntrl=      2127 FMM=F ISym2X=0 I1Cent= 0 IOpClX= 0 NMat=1 NMatS=1 NMatT=0.
 ***** Axes restored to original set *****
 -------------------------------------------------------------------
 Center     Atomic                   Forces (Hartrees/Bohr)
 Number     Number              X              Y              Z
 -------------------------------------------------------------------
      1        6           0.000204622   -0.000143268    0.000076287
      2        6          -0.000047797    0.000078444    0.000010363
      3        6          -0.000250012   -0.000220685    0.000055716
      4        8           0.000037734   -0.000012206    0.000151077
      5        1          -0.000064600    0.000057193    0.000013448
      6        1          -0.000042995    0.000014932    0.000016634
      7        1          -0.000030294    0.000022447   -0.000075178
      8        1           0.000055040    0.000006773   -0.000053112
      9        1           0.000041393    0.000052449   -0.000085559
     10        1           0.000045350    0.000006943    0.000001691
     11        1           0.000040099    0.000057211    0.000012482
     12        1           0.000011459    0.000079767   -0.000123849
 -------------------------------------------------------------------
 Cartesian Forces:  Max     0.000250012 RMS     0.000088062

 GradGradGradGradGradGradGradGradGradGradGradGradGradGradGradGradGradGrad
 Berny optimization.
 Using GEDIIS/GDIIS optimizer.
 FormGI is forming the generalized inverse of G from B-inverse, IUseBI=4.
 Internal  Forces:  Max     0.000146064 RMS     0.000047343
 Search for a local minimum.
 Step number   4 out of a maximum of   61
 All quantities printed in internal units (Hartrees-Bohrs-Radians)
 Mixed Optimization -- En-DIIS/RFO-DIIS
 Swapping is turned off.
 Update second derivatives using D2CorX and points    1    2    3    4
 DE= -3.56D-06 DEPred=-2.86D-06 R= 1.24D+00
 TightC=F SS=  1.41D+00  RLast= 2.07D-02 DXNew= 5.0454D-01 6.2057D-02
 Trust test= 1.24D+00 RLast= 2.07D-02 DXMaxT set to 3.00D-01
 ITU=  1  1  1  0
     Eigenvalues ---    0.00341   0.00398   0.00867   0.04535   0.05200
     Eigenvalues ---    0.05595   0.05644   0.05692   0.05806   0.07600
     Eigenvalues ---    0.15748   0.15994   0.16000   0.16000   0.16000
     Eigenvalues ---    0.16273   0.17623   0.18339   0.20247   0.28960
     Eigenvalues ---    0.31649   0.33628   0.34924   0.35059   0.35185
     Eigenvalues ---    0.35209   0.35381   0.35588   0.40201   0.55031
 En-DIIS/RFO-DIIS/Sim-DIIS IScMMF=       -3 using points:     4    3    2
 RFO step:  Lambda=-2.32563526D-06.
 DidBck=F Rises=F RFO-DIIS coefs:    1.77184   -0.73332   -0.03852
 Iteration  1 RMS(Cart)=  0.00204271 RMS(Int)=  0.00000827
 Iteration  2 RMS(Cart)=  0.00000822 RMS(Int)=  0.00000052
 Iteration  3 RMS(Cart)=  0.00000000 RMS(Int)=  0.00000052
 Variable       Old X    -DE/DX   Delta X   Delta X   Delta X     New X
                                 (Linear)    (Quad)   (Total)
    R1        2.87138   0.00009  -0.00060   0.00051  -0.00009   2.87129
    R2        2.06175  -0.00006  -0.00009  -0.00006  -0.00016   2.06160
    R3        2.06449  -0.00003  -0.00012   0.00002  -0.00010   2.06439
    R4        2.06263  -0.00008  -0.00022  -0.00006  -0.00027   2.06235
    R5        2.86155   0.00015  -0.00082   0.00091   0.00009   2.86164
    R6        2.68718   0.00007   0.00149  -0.00053   0.00096   2.68814
    R7        2.07415   0.00005   0.00033  -0.00014   0.00019   2.07435
    R8        2.06241  -0.00009  -0.00019  -0.00009  -0.00028   2.06213
    R9        2.05875  -0.00003  -0.00023   0.00008  -0.00016   2.05860
   R10        2.06054  -0.00006  -0.00010  -0.00005  -0.00015   2.06039
   R11        1.81667   0.00008   0.00002   0.00013   0.00015   1.81682
    A1        1.93643  -0.00007   0.00094  -0.00092   0.00003   1.93646
    A2        1.93789  -0.00002  -0.00024   0.00016  -0.00008   1.93781
    A3        1.91701  -0.00004   0.00111  -0.00097   0.00013   1.91714
    A4        1.88160   0.00006  -0.00072   0.00085   0.00013   1.88173
    A5        1.89777   0.00004  -0.00059   0.00051  -0.00008   1.89769
    A6        1.89193   0.00002  -0.00058   0.00045  -0.00013   1.89180
    A7        1.95742  -0.00003   0.00065  -0.00036   0.00029   1.95771
    A8        1.93631  -0.00001  -0.00045   0.00022  -0.00024   1.93608
    A9        1.90406  -0.00000   0.00105  -0.00092   0.00013   1.90418
   A10        1.85610   0.00005  -0.00113   0.00114   0.00002   1.85612
   A11        1.90126   0.00001   0.00053  -0.00030   0.00022   1.90148
   A12        1.90763  -0.00001  -0.00071   0.00027  -0.00044   1.90719
   A13        1.91543  -0.00008   0.00059  -0.00094  -0.00035   1.91508
   A14        1.92502  -0.00002   0.00034  -0.00026   0.00009   1.92510
   A15        1.93209  -0.00003   0.00040  -0.00027   0.00014   1.93223
   A16        1.89206   0.00004  -0.00018   0.00023   0.00005   1.89211
   A17        1.89901   0.00005  -0.00084   0.00075  -0.00009   1.89892
   A18        1.89953   0.00004  -0.00036   0.00052   0.00016   1.89970
   A19        1.89884   0.00001  -0.00149   0.00100  -0.00049   1.89835
    D1        1.06328  -0.00003   0.00244  -0.00178   0.00066   1.06394
    D2        3.13608   0.00001   0.00114  -0.00042   0.00072   3.13680
    D3       -1.04464  -0.00001   0.00065  -0.00055   0.00011  -1.04453
    D4       -3.12775  -0.00001   0.00200  -0.00122   0.00079  -3.12696
    D5       -1.05494   0.00003   0.00070   0.00014   0.00084  -1.05410
    D6        1.04752   0.00000   0.00021   0.00002   0.00023   1.04775
    D7       -1.03541  -0.00001   0.00185  -0.00119   0.00066  -1.03475
    D8        1.03739   0.00002   0.00055   0.00017   0.00072   1.03811
    D9        3.13986   0.00000   0.00006   0.00004   0.00010   3.13996
   D10        1.03076   0.00002   0.00253   0.00045   0.00298   1.03374
   D11        3.11417   0.00000   0.00289  -0.00001   0.00288   3.11704
   D12       -1.06569   0.00002   0.00293   0.00029   0.00323  -1.06246
   D13       -1.08874   0.00001   0.00344  -0.00035   0.00309  -1.08566
   D14        0.99466  -0.00000   0.00380  -0.00082   0.00298   0.99764
   D15        3.09800   0.00001   0.00384  -0.00051   0.00333   3.10133
   D16        3.14030  -0.00000   0.00461  -0.00113   0.00348  -3.13941
   D17       -1.05948  -0.00002   0.00498  -0.00160   0.00337  -1.05611
   D18        1.04385  -0.00000   0.00502  -0.00129   0.00372   1.04758
   D19        0.93622   0.00007   0.00680   0.00176   0.00857   0.94478
   D20        3.06915   0.00006   0.00661   0.00219   0.00880   3.07795
   D21       -1.16413   0.00009   0.00625   0.00260   0.00884  -1.15528
         Item               Value     Threshold  Converged?
 Maximum Force            0.000146     0.000450     YES
 RMS     Force            0.000047     0.000300     YES
 Maximum Displacement     0.007381     0.001800     NO 
 RMS     Displacement     0.002043     0.001200     NO 
 Predicted change in Energy=-1.160405D-06
 GradGradGradGradGradGradGradGradGradGradGradGradGradGradGradGradGradGrad

                          Input orientation:                          
 ---------------------------------------------------------------------
 Center     Atomic      Atomic             Coordinates (Angstroms)
 Number     Number       Type             X           Y           Z
 ---------------------------------------------------------------------
      1          6           0        1.265138   -0.720976    0.106078
      2          6           0        0.005331   -0.016962   -0.369200
      3          6           0       -1.252431   -0.717211    0.100735
      4          8           0       -0.059607    1.308806    0.142299
      5          1           0        1.312914   -1.739421   -0.282070
      6          1           0        2.160129   -0.192686   -0.230531
      7          1           0        1.278381   -0.760601    1.196628
      8          1           0        0.005295    0.017557   -1.466353
      9          1           0       -1.266503   -0.756653    1.191161
     10          1           0       -2.135177   -0.174497   -0.235318
     11          1           0       -1.295394   -1.734863   -0.288266
     12          1           0        0.752263    1.769357   -0.088115
 ---------------------------------------------------------------------
                    Distance matrix (angstroms):
                    1          2          3          4          5
     1  C    0.000000
     2  C    1.519420   0.000000
     3  C    2.517577   1.514315   0.000000
     4  O    2.424104   1.422502   2.351446   0.000000
     5  H    1.090950   2.164308   2.787911   3.369807   0.000000
     6  H    1.092431   2.166393   3.468490   2.705681   1.764318
     7  H    1.091350   2.150690   2.758237   2.680348   1.773649
     8  H    2.145967   1.097696   2.139514   2.063807   2.489853
     9  H    2.754611   2.144628   1.091230   2.612055   3.128839
    10  H    3.460828   2.150469   1.089363   2.578909   3.786886
    11  H    2.782049   2.156297   1.090314   3.313077   2.608319
    12  H    2.550002   1.956490   3.199606   0.961421   3.558578
                    6          7          8          9         10
     6  H    0.000000
     7  H    1.771098   0.000000
     8  H    2.492943   3.052498   0.000000
     9  H    3.752475   2.544892   3.046187   0.000000
    10  H    4.295347   3.747847   2.476681   1.768713   0.000000
    11  H    3.784479   3.127045   2.480051   1.773819   1.772789
    12  H    2.419087   2.885836   2.350810   3.477454   3.483898
                   11         12
    11  H    0.000000
    12  H    4.063559   0.000000
 Stoichiometry    C3H8O
 Framework group  C1[X(C3H8O)]
 Deg. of freedom    30
 Full point group                 C1      NOp   1
 Largest Abelian subgroup         C1      NOp   1
 Largest concise Abelian subgroup C1      NOp   1
                         Standard orientation:                         
 ---------------------------------------------------------------------
 Center     Atomic      Atomic             Coordinates (Angstroms)
 Number     Number       Type             X           Y           Z
 ---------------------------------------------------------------------
      1          6           0       -1.176020   -0.794208   -0.102299
      2          6           0        0.002518    0.041775    0.367612
      3          6           0        1.327630   -0.530007   -0.090966
      4          8           0       -0.068123    1.361153   -0.159421
      5          1           0       -1.119639   -1.807580    0.297788
      6          1           0       -2.122047   -0.357468    0.225873
      7          1           0       -1.181157   -0.847584   -1.192330
      8          1           0       -0.004977    0.088784    1.464276
      9          1           0        1.349642   -0.580376   -1.180811
     10          1           0        2.148311    0.104944    0.240740
     11          1           0        1.474178   -1.533196    0.310181
     12          1           0       -0.924087    1.737892    0.063567
 ---------------------------------------------------------------------
 Rotational constants (GHZ):           8.7421999           8.1266604           4.8164241
 Standard basis: def2TZVP (5D, 7F)
 There are   192 symmetry adapted cartesian basis functions of A   symmetry.
 There are   172 symmetry adapted basis functions of A   symmetry.
   172 basis functions,   268 primitive gaussians,   192 cartesian basis functions
    17 alpha electrons       17 beta electrons
       nuclear repulsion energy       135.2867535279 Hartrees.
 NAtoms=   12 NActive=   12 NUniq=   12 SFac= 1.00D+00 NAtFMM=   60 NAOKFM=F Big=F
 Integral buffers will be    131072 words long.
 Raffenetti 2 integral format.
 Two-electron integral symmetry is turned on.
 One-electron integrals computed using PRISM.
   1 Symmetry operations used in ECPInt.
 ECPInt:  NShTT=    2926 NPrTT=    8368 LenC2=    2919 LenP2D=    7278.
 LDataN:  DoStor=T MaxTD1= 6 Len=  172
 NBasis=   172 RedAO= T EigKep=  3.51D-04  NBF=   172
 NBsUse=   172 1.00D-06 EigRej= -1.00D+00 NBFU=   172
 Initial guess from the checkpoint file:  "/home/svss/projects/Project-Philicity/GS/hydrocarbon/set-1/GS/mol_1_hc/mol_1_hc.chk"
 B after Tr=     0.000000   -0.000000   -0.000000
         Rot=    1.000000   -0.000033    0.000068   -0.000004 Ang=  -0.01 deg.
 Keep R1 ints in memory in canonical form, NReq=118869253.
 Requested convergence on RMS density matrix=1.00D-08 within 128 cycles.
 Requested convergence on MAX density matrix=1.00D-06.
 Requested convergence on             energy=1.00D-06.
 No special actions if energy rises.
 SCF Done:  E(RM062X) =  -194.340041929     A.U. after    8 cycles
            NFock=  8  Conv=0.37D-08     -V/T= 2.0048
   1 Symmetry operations used in ECPInt.
 ECPInt:  NShTT=    2926 NPrTT=    8368 LenC2=    2919 LenP2D=    7278.
 LDataN:  DoStor=T MaxTD1= 7 Len=  274
 Calling FoFJK, ICntrl=      2127 FMM=F ISym2X=0 I1Cent= 0 IOpClX= 0 NMat=1 NMatS=1 NMatT=0.
 ***** Axes restored to original set *****
 -------------------------------------------------------------------
 Center     Atomic                   Forces (Hartrees/Bohr)
 Number     Number              X              Y              Z
 -------------------------------------------------------------------
      1        6           0.000194586   -0.000115248    0.000032996
      2        6          -0.000077654    0.000348983   -0.000013996
      3        6          -0.000147877   -0.000145561    0.000022400
      4        8           0.000083272   -0.000246306    0.000008912
      5        1          -0.000061240    0.000003307   -0.000017848
      6        1          -0.000023943    0.000021073    0.000004976
      7        1          -0.000040783    0.000031180    0.000015808
      8        1           0.000041664   -0.000034809    0.000026841
      9        1           0.000033219    0.000038746    0.000015012
     10        1           0.000003352    0.000030460   -0.000006088
     11        1           0.000043123    0.000021611   -0.000024210
     12        1          -0.000047719    0.000046563   -0.000064804
 -------------------------------------------------------------------
 Cartesian Forces:  Max     0.000348983 RMS     0.000094064

 GradGradGradGradGradGradGradGradGradGradGradGradGradGradGradGradGradGrad
 Berny optimization.
 Using GEDIIS/GDIIS optimizer.
 FormGI is forming the generalized inverse of G from B-inverse, IUseBI=4.
 Internal  Forces:  Max     0.000207044 RMS     0.000045069
 Search for a local minimum.
 Step number   5 out of a maximum of   61
 All quantities printed in internal units (Hartrees-Bohrs-Radians)
 Mixed Optimization -- En-DIIS/RFO-DIIS
 Swapping is turned off.
 Update second derivatives using D2CorX and points    1    2    3    4    5
 DE= -1.65D-06 DEPred=-1.16D-06 R= 1.42D+00
 TightC=F SS=  1.41D+00  RLast= 1.81D-02 DXNew= 5.0454D-01 5.4404D-02
 Trust test= 1.42D+00 RLast= 1.81D-02 DXMaxT set to 3.00D-01
 ITU=  1  1  1  1  0
     Eigenvalues ---    0.00258   0.00389   0.00608   0.04494   0.05322
     Eigenvalues ---    0.05584   0.05646   0.05680   0.05799   0.07588
     Eigenvalues ---    0.15069   0.15995   0.16000   0.16000   0.16052
     Eigenvalues ---    0.16276   0.17114   0.18840   0.20331   0.28325
     Eigenvalues ---    0.31177   0.33810   0.34957   0.35112   0.35209
     Eigenvalues ---    0.35280   0.35477   0.36965   0.50725   0.56096
 En-DIIS/RFO-DIIS/Sim-DIIS IScMMF=       -3 using points:     5    4    3    2
 RFO step:  Lambda=-1.91603269D-06.
 DidBck=F Rises=F RFO-DIIS coefs:    2.38953   -1.40536   -0.06316    0.07899
 Iteration  1 RMS(Cart)=  0.00256483 RMS(Int)=  0.00001668
 Iteration  2 RMS(Cart)=  0.00001646 RMS(Int)=  0.00000044
[...]
   D15        3.10432   0.00000   0.00000  -0.00067  -0.00067   3.10365
   D16       -3.13734  -0.00000   0.00000  -0.00079  -0.00079  -3.13813
   D17       -1.05431  -0.00000   0.00000  -0.00072  -0.00072  -1.05503
   D18        1.04982  -0.00000   0.00000  -0.00080  -0.00080   1.04902
   D19        0.96465  -0.00000   0.00000   0.00030   0.00030   0.96495
   D20        3.09726   0.00000   0.00000   0.00030   0.00030   3.09756
   D21       -1.13557   0.00000   0.00000   0.00033   0.00033  -1.13524
         Item               Value     Threshold  Converged?
 Maximum Force            0.000070     0.000450     YES
 RMS     Force            0.000011     0.000300     YES
 Maximum Displacement     0.001243     0.001800     YES
 RMS     Displacement     0.000321     0.001200     YES
 Predicted change in Energy=-1.891364D-08
 Optimization completed.
    -- Stationary point found.
                           ----------------------------
                           !   Optimized Parameters   !
                           ! (Angstroms and Degrees)  !
 --------------------------                            --------------------------
 ! Name  Definition              Value          Derivative Info.                !
 --------------------------------------------------------------------------------
 ! R1    R(1,2)                  1.5198         -DE/DX =    0.0                 !
 ! R2    R(1,5)                  1.0909         -DE/DX =    0.0                 !
 ! R3    R(1,6)                  1.0923         -DE/DX =    0.0                 !
 ! R4    R(1,7)                  1.0913         -DE/DX =    0.0                 !
 ! R5    R(2,3)                  1.5145         -DE/DX =    0.0                 !
 ! R6    R(2,4)                  1.4222         -DE/DX =   -0.0001              !
 ! R7    R(2,8)                  1.0976         -DE/DX =    0.0                 !
 ! R8    R(3,9)                  1.0912         -DE/DX =    0.0                 !
 ! R9    R(3,10)                 1.0894         -DE/DX =    0.0                 !
 ! R10   R(3,11)                 1.0903         -DE/DX =    0.0                 !
 ! R11   R(4,12)                 0.9614         -DE/DX =    0.0                 !
 ! A1    A(2,1,5)              110.9208         -DE/DX =    0.0                 !
 ! A2    A(2,1,6)              111.0205         -DE/DX =    0.0                 !
 ! A3    A(2,1,7)              109.8025         -DE/DX =    0.0                 !
 ! A4    A(5,1,6)              107.8633         -DE/DX =    0.0                 !
 ! A5    A(5,1,7)              108.7575         -DE/DX =    0.0                 !
 ! A6    A(6,1,7)              108.3983         -DE/DX =    0.0                 !
 ! A7    A(1,2,3)              112.1391         -DE/DX =    0.0                 !
 ! A8    A(1,2,4)              110.9326         -DE/DX =    0.0                 !
 ! A9    A(1,2,8)              109.0899         -DE/DX =    0.0                 !
 ! A10   A(3,2,4)              106.3513         -DE/DX =    0.0                 !
 ! A11   A(3,2,8)              108.9499         -DE/DX =    0.0                 !
 ! A12   A(4,2,8)              109.3074         -DE/DX =    0.0                 !
 ! A13   A(2,3,9)              109.6819         -DE/DX =    0.0                 !
 ! A14   A(2,3,10)             110.2978         -DE/DX =    0.0                 !
 ! A15   A(2,3,11)             110.6853         -DE/DX =    0.0                 !
 ! A16   A(9,3,10)             108.4207         -DE/DX =    0.0                 !
 ! A17   A(9,3,11)             108.8272         -DE/DX =    0.0                 !
 ! A18   A(10,3,11)            108.8786         -DE/DX =    0.0                 !
 ! A19   A(2,4,12)             108.7877         -DE/DX =    0.0                 !
 ! D1    D(5,1,2,3)             60.9471         -DE/DX =    0.0                 !
 ! D2    D(5,1,2,4)            179.7004         -DE/DX =    0.0                 !
 ! D3    D(5,1,2,8)            -59.8366         -DE/DX =    0.0                 !
 ! D4    D(6,1,2,3)           -179.1383         -DE/DX =    0.0                 !
 ! D5    D(6,1,2,4)            -60.385          -DE/DX =    0.0                 !
 ! D6    D(6,1,2,8)             60.0781         -DE/DX =    0.0                 !
 ! D7    D(7,1,2,3)            -59.2876         -DE/DX =    0.0                 !
 ! D8    D(7,1,2,4)             59.4656         -DE/DX =    0.0                 !
 ! D9    D(7,1,2,8)            179.9287         -DE/DX =    0.0                 !
 ! D10   D(1,2,3,9)             59.3794         -DE/DX =    0.0                 !
 ! D11   D(1,2,3,10)           178.7277         -DE/DX =    0.0                 !
 ! D12   D(1,2,3,11)           -60.7141         -DE/DX =    0.0                 !
 ! D13   D(4,2,3,9)            -62.0423         -DE/DX =    0.0                 !
 ! D14   D(4,2,3,10)            57.306          -DE/DX =    0.0                 !
 ! D15   D(4,2,3,11)           177.8642         -DE/DX =    0.0                 !
 ! D16   D(8,2,3,9)           -179.7561         -DE/DX =    0.0                 !
 ! D17   D(8,2,3,10)           -60.4078         -DE/DX =    0.0                 !
 ! D18   D(8,2,3,11)            60.1504         -DE/DX =    0.0                 !
 ! D19   D(1,2,4,12)            55.2706         -DE/DX =    0.0                 !
 ! D20   D(3,2,4,12)           177.4601         -DE/DX =    0.0                 !
 ! D21   D(8,2,4,12)           -65.0634         -DE/DX =    0.0                 !
 --------------------------------------------------------------------------------
 GradGradGradGradGradGradGradGradGradGradGradGradGradGradGradGradGradGrad


 ----------------------------------------------------------------------

 Electric dipole moment (input orientation):
 (Debye = 10**-18 statcoulomb cm , SI units = C m)
                  (au)            (Debye)         (10**-30 SI)
   Tot        0.648988D+00      0.164956D+01      0.550235D+01
   x          0.488949D+00      0.124278D+01      0.414548D+01
   y         -0.265570D+00     -0.675013D+00     -0.225160D+01
   z         -0.334046D+00     -0.849059D+00     -0.283216D+01

 Dipole polarizability, Alpha (input orientation).
 (esu units = cm**3 , SI units = C**2 m**2 J**-1)
 Alpha(0;0):
               (au)            (10**-24 esu)      (10**-40 SI)
   iso        0.421735D+02      0.624946D+01      0.695347D+01
   aniso      0.581004D+01      0.860960D+00      0.957947D+00
   xx         0.450296D+02      0.667269D+01      0.742437D+01
   yx         0.969591D+00      0.143679D+00      0.159864D+00
   yy         0.427784D+02      0.633910D+01      0.705320D+01
   zx        -0.242529D+00     -0.359391D-01     -0.399877D-01
   zy         0.500937D-01      0.742312D-02      0.825933D-02
   zz         0.387125D+02      0.573660D+01      0.638283D+01

 ----------------------------------------------------------------------

 Dipole orientation:
     6          1.36908532          0.81045652          2.25695796
     6         -0.52226890         -0.25915325          0.37897717
     6         -1.61159732          1.76496466         -1.32624589
     8          0.64393609         -2.06257645         -1.23677332
     1          0.47647753          2.20108524          3.48965686
     1          2.15356570         -0.68122046          3.44882353
     1          2.92003553          1.71904307          1.24593470
     1         -2.06978331         -1.16891913          1.41823002
     1         -0.09143383          2.67951368         -2.37746562
     1         -2.92520385          0.93183905         -2.67461275
     1         -2.60628647          3.19046548         -0.22022252
     1          1.42618193         -3.34465859         -0.21444438

 Electric dipole moment (dipole orientation):
 (Debye = 10**-18 statcoulomb cm , SI units = C m)
                  (au)            (Debye)         (10**-30 SI)
   Tot        0.648988D+00      0.164956D+01      0.550235D+01
   x          0.000000D+00      0.000000D+00      0.000000D+00
   y          0.000000D+00      0.000000D+00      0.000000D+00
   z          0.648988D+00      0.164956D+01      0.550235D+01

 Dipole polarizability, Alpha (dipole orientation).
 (esu units = cm**3 , SI units = C**2 m**2 J**-1)
 Alpha(0;0):
               (au)            (10**-24 esu)      (10**-40 SI)
   iso        0.421735D+02      0.624946D+01      0.695347D+01
   aniso      0.581004D+01      0.860960D+00      0.957947D+00
   xx         0.413843D+02      0.613252D+01      0.682335D+01
   yx        -0.217366D+01     -0.322103D+00     -0.358388D+00
   yy         0.425458D+02      0.630464D+01      0.701485D+01
   zx         0.245749D+01      0.364162D+00      0.405185D+00
   zy        -0.143435D+00     -0.212548D-01     -0.236492D-01
   zz         0.425903D+02      0.631124D+01      0.702220D+01

 ----------------------------------------------------------------------
 Unable to Open any file for archive entry.
 1\1\GINC-NODE12\Freq\RM062X\def2TZVP\C3H8O1\SVSS\20-Jun-2022\0\\#N Geo
 m=AllCheck Guess=TCheck SCRF=Check GenChk RM062X/def2TZVP Freq\\conver
 ted from /home/svss/projects/Project-Philicity/GS/hydrocarbon/set-1/GS
 /mol_1_hc/mol_1_hc_cregen_best.xyz\\0,1\C,1.2655193422,-0.7227334832,0
 .1065870503\C,0.0061975122,-0.0163388133,-0.3675623984\C,-1.2520896664
 ,-0.717117843,0.1009126384\O,-0.0578656557,1.3079781955,0.1469584211\H
 ,1.3118536191,-1.7403423193,-0.2839085026\H,2.1609252077,-0.1942321864
 ,-0.2283026955\H,1.27775465,-0.7644078372,1.1970526344\H,0.0064807214,
 0.0201477571,-1.4646026583\H,-1.2667088328,-0.7562102408,1.1913437972\
 H,-2.1345706065,-0.1744882749,-0.2359440174\H,-1.2937911087,-1.7347042
 403,-0.2882262487\H,0.7466348174,1.7742992857,-0.0972580205\\Version=A
 S64L-G16RevC.01\State=1-A\HF=-194.3400438\RMSD=7.766e-10\RMSF=1.823e-0
 5\ZeroPoint=0.1087135\Thermal=0.1141596\ETot=-194.2258842\HTot=-194.22
 494\GTot=-194.2587211\Dipole=0.4889489,-0.2655704,-0.3340455\DipoleDer
 iv=-0.0790935,0.1241791,-0.0395177,0.0388652,-0.0235402,0.0192207,-0.0
 623536,0.024561,0.0525055,0.4319801,-0.0157004,0.0329905,-0.0314323,0.
 8092336,0.1048845,0.0352122,0.1044598,0.3725932,-0.0679826,-0.0730919,
 0.0233743,-0.0141771,0.0194825,0.0196071,0.0352827,0.0352912,0.0653885
 ,-0.4184607,0.034387,-0.0961354,0.0578413,-1.01228,-0.1057022,-0.09604
 19,-0.1265082,-0.501148,0.0555864,-0.0128641,-0.0201464,0.0310365,-0.1
 066035,-0.0525998,-0.0018608,-0.0700083,0.0391426,-0.1101375,-0.057012
 5,0.0329071,-0.1026127,-0.008385,0.0440355,0.0508456,0.0492273,0.04320
 7,0.0424165,0.0104063,0.0371919,0.0104555,0.0632093,-0.008296,-0.02726
 14,0.0233049,-0.1129664,-0.0202447,0.0066034,0.0040302,-0.0052968,-0.0
 39943,0.0225284,-0.0017924,-0.0228324,-0.2149749,0.0432547,-0.0127584,
 -0.0371308,-0.0120103,0.0652002,-0.0051219,0.0254467,0.025658,-0.11571
 74,-0.0876524,0.0402503,-0.0287135,0.083001,0.0266984,0.0366237,-0.043
 8499,0.0380722,0.0499169,0.0544443,0.0172558,0.0218147,-0.0277368,-0.1
 022817,-0.0538611,0.0043214,-0.0725756,0.0383546,0.1558894,-0.0616547,
 0.0693353,-0.0279333,0.3092094,-0.0213191,0.0820516,-0.00865,0.2836983
 \Polar=45.0295515,0.9695912,42.7783794,-0.2425292,0.0500937,38.712485\
 Quadrupole=0.4343438,-0.1337383,-0.3006055,2.1041296,-0.1364769,-0.784
 763\PG=C01 [X(C3H8O1)]\NImag=0\\0.51597169,0.03757292,0.56393890,-0.02
 669408,0.01908327,0.57157178,-0.16657700,0.03547025,-0.04133508,0.5278
 5053,0.04526394,-0.09490086,0.02343722,0.01564221,0.48411910,-0.035213
 99,0.01951576,-0.10035710,-0.01040609,-0.01233181,0.60730544,-0.032921
 74,-0.01158029,0.00912115,-0.17236763,-0.05051469,0.03594081,0.5257701
 4,0.01169622,0.01076004,-0.00496196,-0.03997839,-0.09619555,0.01813596
 ,-0.03727009,0.57642859,-0.00949156,-0.00539291,0.00390069,0.04346040,
 0.02612566,-0.09867837,0.02718564,0.01687190,0.57149724,-0.00112134,0.
 03415081,0.01397830,-0.08983048,-0.01376319,0.00936691,-0.00054089,-0.
 03842587,-0.01341775,0.47165714,0.00370427,-0.04044424,-0.01373074,0.0
 2554052,-0.20501332,-0.06655348,-0.00591881,-0.03614225,-0.01127152,0.
 19076123,0.43837889,0.00038963,0.00380679,0.00668469,0.02266762,-0.051
 97246,-0.09941762,-0.00024052,0.00781578,0.00670032,-0.14222983,0.0424
 0122,0.14010448,-0.04757266,0.00840962,0.00201382,0.00282357,0.0220368
 5,0.01294876,0.00098867,-0.00008497,0.00041468,-0.00495369,0.00674482,
 -0.00137654,0.04891028,0.01035043,-0.28155651,-0.09061685,-0.00374115,
 -0.01300381,-0.00710480,-0.00096283,0.00009602,-0.00031723,0.00412522,
 -0.00255339,0.00148402,-0.01114505,0.30561018,0.00280565,-0.09138481,-
 0.08247748,0.00147773,0.00985509,0.00284035,0.00018994,-0.00017583,0.0
 0002329,-0.00220629,0.00231591,0.00146904,-0.00293321,0.09991157,0.084
 43527,-0.22166502,-0.10558059,0.06754174,-0.02291918,-0.01646362,0.010
 11686,-0.00367803,0.00444773,-0.00303209,0.00317146,-0.00056282,-0.000
 30657,0.00164815,0.00116455,-0.00115014,0.24339396,-0.10661646,-0.1114
 7793,0.04120436,0.01416576,0.00584676,-0.00631657,0.00231730,-0.001366
 75,0.00063726,-0.00005612,0.00314337,0.00013668,-0.02460261,-0.0137348
 9,0.01048716,0.11514265,0.11800298,0.06799851,0.04197812,-0.07385457,-
 0.01015614,-0.00647868,0.00293144,-0.00150646,0.00124434,-0.00020322,0
 .00037154,-0.00131287,-0.00056871,-0.01043738,-0.00532495,0.00307936,-
 0.07303618,-0.04584632,0.07510570,-0.04669743,-0.00048521,0.00140081,-
 0.00180027,0.00057360,-0.03119426,0.00193696,-0.00003640,-0.00133256,0
 .00180856,-0.00209686,0.00186417,-0.00137093,-0.00024598,0.00111271,0.
 00048331,0.00021484,0.02634140,0.05043557,-0.00112179,-0.04702138,0.00
 815399,0.00112544,-0.00171995,0.01708929,-0.00094511,-0.00004907,-0.00
 042301,-0.00139074,0.00167334,-0.00075444,-0.00014997,0.00290033,-0.03
 030059,0.00095536,-0.00125378,0.01643133,-0.00105958,0.04630871,-0.000
 11604,0.00938199,-0.31560933,-0.00053291,-0.00057578,-0.01440146,0.000
 81584,-0.00020371,0.00086508,0.00107253,0.00051401,0.00253509,0.000060
 21,0.00114649,-0.00926271,-0.00041698,-0.00008399,-0.00833115,0.002188
 54,-0.01113459,0.34285429,-0.00176038,0.00387310,-0.02977023,-0.053556
 73,-0.00013181,-0.00083781,-0.00154763,-0.00317965,0.02942670,0.003319
 49,0.00008185,0.00184478,0.00082150,0.00004326,0.00070186,0.00112510,-
 0.00099788,0.00046986,-0.00445179,0.00282197,-0.00219190,0.05853872,0.
 00046189,0.00082343,0.01600403,-0.00159156,-0.04906546,0.02215901,-0.0
 0046978,-0.00015764,0.01657034,0.00130735,-0.01692608,-0.04273499,-0.0
 0075040,0.00039887,-0.00035413,0.00009291,0.00047096,-0.00077459,0.003
 01322,-0.00090559,0.00114614,-0.00067407,0.06423805,-0.00038503,0.0025
 2304,-0.01049704,-0.00082029,0.01949875,-0.29347788,0.00077674,0.00218
 096,-0.01015464,0.00017285,-0.01452633,-0.01084316,-0.00050137,0.00069
 880,-0.00007541,-0.00036879,-0.00047578,0.00047977,-0.00166543,0.00090
 078,0.00097143,0.00018769,-0.01155270,0.32215478,0.00188021,0.00009579
 ,0.00133672,-0.00219491,-0.00088782,0.03147373,-0.04703082,0.00029758,
 -0.00105645,0.00160412,0.00186922,-0.00158013,-0.00006860,0.00008137,-
 0.00002256,0.00028945,0.00003528,-0.00042122,-0.00040607,0.00000030,-0
 .00069280,-0.00443856,-0.00307849,0.00160368,0.05074626,0.00097192,-0.
 00007801,-0.00040870,-0.00087327,-0.00190037,0.01707966,0.00083517,-0.
 04687713,0.00762578,0.00085227,0.00142571,-0.00019197,0.00000272,-0.00
 001139,-0.00014315,0.00009536,-0.00013412,-0.00000339,0.00001948,0.000
 38081,-0.00033823,-0.00273807,-0.00098849,0.00090468,0.00146772,0.0460
 1358,-0.00080087,-0.00022879,0.00090616,0.00066636,-0.00000359,-0.0142
 8994,0.00088298,0.00890893,-0.31549353,-0.00061312,0.00023668,0.001619
 87,0.00005650,0.00010782,-0.00000502,-0.00005943,0.00001491,0.00040157
 ,0.00071856,-0.00034618,0.00045151,0.00215537,0.00112916,0.00097346,-0
 .00324731,-0.01055139,0.34308959,-0.00363213,-0.00425640,0.00280741,-0
 .02368259,0.01591488,-0.01001984,-0.22322392,0.10975155,-0.06908651,0.
 00261222,0.00078277,0.00007145,0.00029483,0.00000651,0.00011341,-0.001
 56316,0.00072604,-0.00058160,0.00024263,-0.00011377,0.00005697,0.00109
 259,0.00015707,0.00025786,0.00090865,-0.00112854,0.00048924,0.24430908
 ,-0.00239577,-0.00159468,0.00069850,-0.01393224,0.00711114,-0.00606916
 ,0.11288488,-0.11678441,0.04389620,0.00062021,0.00151267,0.00012878,-0
 .00013927,0.00020811,0.00015667,-0.00085440,0.00063754,-0.00008480,-0.
 00000410,-0.00012703,0.00002442,0.00083295,0.00047749,-0.00040268,-0.0
 0054456,-0.00082266,-0.00023961,-0.12037411,0.12256362,0.00158062,0.00
 125972,-0.00022961,0.01003537,-0.00668599,0.00277306,-0.07026722,0.044
 11086,-0.07520895,-0.00091808,-0.00055066,-0.00018740,-0.00015993,0.00
 028106,-0.00010192,0.00060896,-0.00007725,0.00068757,0.00038769,-0.000
 00588,0.00038807,-0.00032119,-0.00084957,0.00047396,-0.02621407,0.0166
 2198,-0.00867696,0.07423985,-0.04846479,0.07702837,0.00088230,0.000044
 52,-0.00035496,0.00236343,-0.02258925,-0.01312559,-0.04835545,-0.00685
 687,-0.00178395,-0.00584474,-0.00450624,0.00198042,-0.00082034,0.00018
 742,0.00010118,0.00032480,0.00015976,0.00016112,-0.00006089,0.00000018
 ,-0.00005132,0.00093177,0.00062122,0.00034789,-0.00143717,0.00028077,-
 0.00008917,0.00233963,0.02377649,0.01091324,0.04944125,0.00085505,0.00
 004369,-0.00028756,0.00415842,-0.01292734,-0.00704082,-0.00990455,-0.2
 8282316,-0.09050249,-0.00425749,-0.00162820,0.00159848,-0.00018268,0.0
 0068853,0.00005802,-0.00003528,0.00026354,0.00026881,-0.00007106,-0.00
 000631,0.00010753,0.00008731,0.00029515,0.00062411,0.00028470,0.002776
 15,0.00103025,-0.00161952,-0.01341195,-0.00548079,0.01070350,0.3073768
 7,-0.00016239,-0.00016161,-0.00002457,-0.00131256,0.00994678,0.0025026
 4,-0.00292408,-0.09204410,-0.08245381,0.00236389,0.00183445,0.00014722
 ,-0.00011159,0.00005357,0.00028648,-0.00010442,0.00016718,-0.00009675,
 0.00002330,-0.00015225,-0.00001568,-0.00074562,-0.00022060,0.00009747,
 -0.00115165,-0.03042254,-0.00922298,0.00154478,0.01038110,0.00316504,0
 .00225957,0.09997863,0.08475847,0.00321349,0.00228548,-0.00004558,-0.0
 0010873,0.00491891,0.00095050,0.00097034,-0.00036083,-0.00128656,-0.38
 188184,-0.21639997,0.11691553,-0.00070078,0.00013625,-0.00019026,-0.00
 061082,-0.00048855,0.00079655,-0.00011964,-0.00012229,-0.00019214,-0.0
 0007407,0.00091064,0.00039419,0.00014743,0.00021448,-0.00015910,0.0003
 0217,0.00012991,0.00011478,0.00023543,-0.00001841,0.00032077,0.3786270
 2,-0.00074263,0.00150756,0.00142443,-0.03598599,-0.02235035,0.01143697
 ,0.00152880,-0.00688870,-0.00381997,-0.17392368,-0.14342648,0.03828211
 ,-0.00013906,0.00095793,-0.00042591,0.00159816,-0.00039767,-0.00009700
 ,0.00017806,-0.00018009,0.00001573,-0.00001895,0.00133929,-0.00037363,
 0.00037889,0.00021590,-0.00005821,0.00015351,0.00023015,-0.00015869,-0
 .00182150,-0.00064695,0.00063939,0.20879439,0.16963942,0.00008955,-0.0
 0038059,-0.00001362,-0.01374440,-0.01081520,0.00226945,0.00002518,-0.0
 0188312,-0.00079409,0.13205907,0.06064332,-0.04824381,0.00002607,-0.00
 031949,-0.00021124,0.00020703,0.00015237,0.00036898,0.00015506,0.00054
 156,-0.00044514,-0.00091952,-0.00052209,-0.00010275,-0.00002792,-0.000
 17274,0.00024627,0.00010699,-0.00002463,-0.00011125,-0.00035842,-0.000
 35418,0.00085648,-0.11761868,-0.04686521,0.04618072\\0.00001655,-0.000
 01331,0.00000502,0.00001896,-0.00005812,-0.00001343,-0.00002781,-0.000
 01771,0.00000609,-0.00001822,0.00006752,0.00002506,-0.00000160,0.00000
 218,0.00000090,-0.00000984,-0.00000090,0.00000175,-0.00000291,-0.00000
 098,-0.00001157,-0.00000399,0.00000790,-0.00000045,0.00000897,0.000010
 10,-0.00001462,0.00000926,-0.00000153,-0.00000047,0.00000384,0.0000065
 7,0.00000043,0.00000679,-0.00000172,0.00000130\\\@
 The archive entry for this job was punched.


 I SUPPOSE A BABY LLAMA HAS A MMAMA AND A PPOPA.
     -- RICHARD AMOUR
 Job cpu time:       0 days  0 hours 14 minutes  5.1 seconds.
 Elapsed time:       0 days  0 hours  1 minutes 47.7 seconds.
 File lengths (MBytes):  RWF=    108 Int=      0 D2E=      0 Chk=      4 Scr=      2
 Normal termination of Gaussian 16 at Mon Jun 20 16:05:09 2022.
