 Entering Gaussian System, Link 0=/opt/apps/Gaussian/G16C/g16/g16
 Input=/home/svss/projects/Project-Philicity/GS/hydrocarbon/set-1/GS/mol_6_hc/mol_6_hc.com
 Output=/home/svss/projects/Project-Philicity/GS/hydrocarbon/set-1/GS/mol_6_hc/mol_6_hc.log
 Initial command:
 /opt/apps/Gaussian/G16C/g16/l1.exe "/home/svss/projects/Project-Philicity/GS/hydrocarbon/set-1/Gau-112952.inp" -scrdir="/home/svss/projects/Project-Philicity/GS/hydrocarbon/set-1/"
 Entering Link 1 = /opt/apps/Gaussian/G16C/g16/l1.exe PID=    112953.
  
 Copyright (c) 1988-2019, Gaussian, Inc.  All Rights Reserved.
  
 This is part of the Gaussian(R) 16 program.  It is based on
 the Gaussian(R) 09 system (copyright 2009, Gaussian, Inc.),
 the Gaussian(R) 03 system (copyright 2003, Gaussian, Inc.),
 the Gaussian(R) 98 system (copyright 1998, Gaussian, Inc.),
 the Gaussian(R) 94 system (copyright 1995, Gaussian, Inc.),
 the Gaussian 92(TM) system (copyright 1992, Gaussian, Inc.),
 the Gaussian 90(TM) system (copyright 1990, Gaussian, Inc.),
 the Gaussian 88(TM) system (copyright 1988, Gaussian, Inc.),
 the Gaussian 86(TM) system (copyright 1986, Carnegie Mellon
 University), and the Gaussian 82(TM) system (copyright 1983,
 Carnegie Mellon University). Gaussian is a federally registered
 trademark of Gaussian, Inc.
  
 This software contains proprietary and confidential information,
 including trade secrets, belonging to Gaussian, Inc.
  
 This software is provided under written license and may be
 used, copied, transmitted, or stored only in accord with that
 written license.
  
 The following legend is applicable only to US Government
 contracts under FAR:
  
                    RESTRICTED RIGHTS LEGEND
  
 Use, reproduction and disclosure by the US Government is
 subject to restrictions as set forth in subparagraphs (a)
 and (c) of the Commercial Computer Software - Restricted
 Rights clause in FAR 52.227-19.
  
 Gaussian, Inc.
 340 Quinnipiac St., Bldg. 40, Wallingford CT 06492
  
  
 ---------------------------------------------------------------
 Warning -- This program may not be used in any manner that
 competes with the business of Gaussian, Inc. or will provide
 assistance to any competitor of Gaussian, Inc.  The licensee
 of this program is prohibited from giving any competitor of
 Gaussian, Inc. access to this program.  By using this program,
 the user acknowledges that Gaussian, Inc. is engaged in the
 business of creating and licensing software in the field of
 computational chemistry and represents and warrants to the
 licensee that it is not a competitor of Gaussian, Inc. and that
 it will not use this program in any manner prohibited above.
 ---------------------------------------------------------------
  

 Cite this work as:
 Gaussian 16, Revision C.01,
 M. J. Frisch, G. W. Trucks, H. B. Schlegel, G. E. Scuseria, 
 M. A. Robb, J. R. Cheeseman, G. Scalmani, V. Barone, 
 G. A. Petersson, H. Nakatsuji, X. Li, M. Caricato, A. V. Marenich, 
 J. Bloino, B. G. Janesko, R. Gomperts, B. Mennucci, H. P. Hratchian, 
 J. V. Ortiz, A. F. Izmaylov, J. L. Sonnenberg, D. Williams-Young, 
 F. Ding, F. Lipparini, F. Egidi, J. Goings, B. Peng, A. Petrone, 
 T. Henderson, D. Ranasinghe, V. G. Zakrzewski, J. Gao, N. Rega, 
 G. Zheng, W. Liang, M. Hada, M. Ehara, K. Toyota, R. Fukuda, 
 J. Hasegawa, M. Ishida, T. Nakajima, Y. Honda, O. Kitao, H. Nakai, 
 T. Vreven, K. Throssell, J. A. Montgomery, Jr., J. E. Peralta, 
 F. Ogliaro, M. J. Bearpark, J. J. Heyd, E. N. Brothers, K. N. Kudin, 
 V. N. Staroverov, T. A. Keith, R. Kobayashi, J. Normand, 
 K. Raghavachari, A. P. Rendell, J. C. Burant, S. S. Iyengar, 
 J. Tomasi, M. Cossi, J. M. Millam, M. Klene, C. Adamo, R. Cammi, 
 J. W. Ochterski, R. L. Martin, K. Morokuma, O. Farkas, 
 J. B. Foresman, and D. J. Fox, Gaussian, Inc., Wallingford CT, 2019.
 
 ******************************************
 Gaussian 16:  AS64L-G16RevC.01  3-Jul-2019
                20-Jun-2022 
 ******************************************
 %nproc=8
 Will use up to    8 processors via shared memory.
 %mem=96GB
 %chk=/home/svss/projects/Project-Philicity/GS/hydrocarbon/set-1/GS/mol_6_hc/mol_
 6_hc.chk
 -------------------------
 # opt freq M062X/def2tzvp
 -------------------------
 1/18=20,19=15,26=3,38=1/1,3;
 2/9=110,12=2,17=6,18=5,40=1/2;
 3/5=44,7=101,11=2,25=1,30=1,71=1,74=-55/1,2,3;
 4//1;
 5/5=2,38=5/2;
 6/7=2,8=2,9=2,10=2,28=1/1;
 7//1,2,3,16;
 1/18=20,19=15,26=3/3(2);
 2/9=110/2;
 99//99;
 2/9=110/2;
 3/5=44,7=101,11=2,25=1,30=1,71=1,74=-55/1,2,3;
 4/5=5,16=3,69=1/1;
 5/5=2,38=5/2;
 7//1,2,3,16;
 1/18=20,19=15,26=3/3(-5);
 2/9=110/2;
 6/7=2,8=2,9=2,10=2,19=2,28=1/1;
 99/9=1/99;
 ----------------------------------------------------------------------
 converted from /home/svss/projects/Project-Philicity/GS/hydrocarbon/se
 t-1/GS/mol_6_hc/mol_6_hc_cregen_best.xyz
 ----------------------------------------------------------------------
 Symbolic Z-matrix:
 Charge =  0 Multiplicity = 1
 C                    -3.18628   0.55911  -0.00089 
 O                    -2.27943  -0.5145    0.00019 
 C                    -0.9426   -0.23605   0.00043 
 C                    -0.39123   1.03798   0.00067 
 C                     0.98632   1.19435   0.00037 
 C                     1.83948   0.10384  -0.00016 
 C                     3.32925   0.27277  -0.00059 
 C                     1.27567  -1.16937  -0.00003 
 C                    -0.09069  -1.3416    0.00026 
 H                    -4.17768   0.10847  -0.00183 
 H                    -3.07445   1.18257   0.89259 
 H                    -3.07261   1.18226  -0.89437 
 H                    -1.01675   1.91704   0.00104 
 H                     1.39686   2.19435   0.00059 
 H                     3.60152   1.32514  -0.00589 
 H                     3.76512  -0.19422   0.88198 
 H                     3.76567  -0.20343  -0.87789 
 H                     1.92139  -2.03581  -0.0003 
 H                    -0.53015  -2.3267    0.00019 
 

 GradGradGradGradGradGradGradGradGradGradGradGradGradGradGradGradGradGrad
 Berny optimization.
 Initialization pass.
                           ----------------------------
                           !    Initial Parameters    !
                           ! (Angstroms and Degrees)  !
 --------------------------                            --------------------------
 ! Name  Definition              Value          Derivative Info.                !
 --------------------------------------------------------------------------------
 ! R1    R(1,2)                  1.4054         estimate D2E/DX2                !
 ! R2    R(1,10)                 1.089          estimate D2E/DX2                !
 ! R3    R(1,11)                 1.0952         estimate D2E/DX2                !
 ! R4    R(1,12)                 1.0952         estimate D2E/DX2                !
 ! R5    R(2,3)                  1.3655         estimate D2E/DX2                !
 ! R6    R(3,4)                  1.3882         estimate D2E/DX2                !
 ! R7    R(3,9)                  1.3957         estimate D2E/DX2                !
 ! R8    R(4,5)                  1.3864         estimate D2E/DX2                !
 ! R9    R(4,13)                 1.0789         estimate D2E/DX2                !
 ! R10   R(5,6)                  1.3846         estimate D2E/DX2                !
 ! R11   R(5,14)                 1.081          estimate D2E/DX2                !
 ! R12   R(6,7)                  1.4993         estimate D2E/DX2                !
 ! R13   R(6,8)                  1.3925         estimate D2E/DX2                !
 ! R14   R(7,15)                 1.087          estimate D2E/DX2                !
 ! R15   R(7,16)                 1.0895         estimate D2E/DX2                !
 ! R16   R(7,17)                 1.0894         estimate D2E/DX2                !
 ! R17   R(8,9)                  1.3772         estimate D2E/DX2                !
 ! R18   R(8,18)                 1.0806         estimate D2E/DX2                !
 ! R19   R(9,19)                 1.0787         estimate D2E/DX2                !
 ! A1    A(2,1,10)             105.7428         estimate D2E/DX2                !
 ! A2    A(2,1,11)             111.6147         estimate D2E/DX2                !
 ! A3    A(2,1,12)             111.6115         estimate D2E/DX2                !
 ! A4    A(10,1,11)            109.2214         estimate D2E/DX2                !
 ! A5    A(10,1,12)            109.2214         estimate D2E/DX2                !
 ! A6    A(11,1,12)            109.3316         estimate D2E/DX2                !
 ! A7    A(1,2,3)              118.4209         estimate D2E/DX2                !
 ! A8    A(2,3,4)              125.1678         estimate D2E/DX2                !
 ! A9    A(2,3,9)              115.851          estimate D2E/DX2                !
 ! A10   A(4,3,9)              118.9812         estimate D2E/DX2                !
 ! A11   A(3,4,5)              119.8779         estimate D2E/DX2                !
 ! A12   A(3,4,13)             121.1634         estimate D2E/DX2                !
 ! A13   A(5,4,13)             118.9587         estimate D2E/DX2                !
 ! A14   A(4,5,6)              121.5617         estimate D2E/DX2                !
 ! A15   A(4,5,14)             118.7962         estimate D2E/DX2                !
 ! A16   A(6,5,14)             119.6421         estimate D2E/DX2                !
 ! A17   A(5,6,7)              121.5685         estimate D2E/DX2                !
 ! A18   A(5,6,8)              118.0772         estimate D2E/DX2                !
 ! A19   A(7,6,8)              120.3543         estimate D2E/DX2                !
 ! A20   A(6,7,15)             110.9747         estimate D2E/DX2                !
 ! A21   A(6,7,16)             110.4257         estimate D2E/DX2                !
 ! A22   A(6,7,17)             110.4275         estimate D2E/DX2                !
 ! A23   A(15,7,16)            108.5848         estimate D2E/DX2                !
 ! A24   A(15,7,17)            108.5966         estimate D2E/DX2                !
 ! A25   A(16,7,17)            107.7409         estimate D2E/DX2                !
 ! A26   A(6,8,9)              121.0692         estimate D2E/DX2                !
 ! A27   A(6,8,18)             119.4194         estimate D2E/DX2                !
 ! A28   A(9,8,18)             119.5113         estimate D2E/DX2                !
 ! A29   A(3,9,8)              120.4327         estimate D2E/DX2                !
 ! A30   A(3,9,19)             118.341          estimate D2E/DX2                !
 ! A31   A(8,9,19)             121.2262         estimate D2E/DX2                !
 ! D1    D(10,1,2,3)           179.9487         estimate D2E/DX2                !
 ! D2    D(11,1,2,3)           -61.3912         estimate D2E/DX2                !
 ! D3    D(12,1,2,3)            61.2901         estimate D2E/DX2                !
 ! D4    D(1,2,3,4)              0.0496         estimate D2E/DX2                !
 ! D5    D(1,2,3,9)           -179.9428         estimate D2E/DX2                !
 ! D6    D(2,3,4,5)           -179.9747         estimate D2E/DX2                !
 ! D7    D(2,3,4,13)             0.0223         estimate D2E/DX2                !
 ! D8    D(9,3,4,5)              0.0175         estimate D2E/DX2                !
 ! D9    D(9,3,4,13)          -179.9855         estimate D2E/DX2                !
 ! D10   D(2,3,9,8)            179.9755         estimate D2E/DX2                !
 ! D11   D(2,3,9,19)            -0.0141         estimate D2E/DX2                !
 ! D12   D(4,3,9,8)             -0.0174         estimate D2E/DX2                !
 ! D13   D(4,3,9,19)           179.993          estimate D2E/DX2                !
 ! D14   D(3,4,5,6)             -0.0004         estimate D2E/DX2                !
 ! D15   D(3,4,5,14)          -179.9984         estimate D2E/DX2                !
 ! D16   D(13,4,5,6)          -179.9975         estimate D2E/DX2                !
 ! D17   D(13,4,5,14)            0.0045         estimate D2E/DX2                !
 ! D18   D(4,5,6,7)            179.9953         estimate D2E/DX2                !
 ! D19   D(4,5,6,8)             -0.0167         estimate D2E/DX2                !
 ! D20   D(14,5,6,7)            -0.0067         estimate D2E/DX2                !
 ! D21   D(14,5,6,8)           179.9813         estimate D2E/DX2                !
 ! D22   D(5,6,7,15)            -0.3085         estimate D2E/DX2                !
 ! D23   D(5,6,7,16)           120.155          estimate D2E/DX2                !
 ! D24   D(5,6,7,17)          -120.7881         estimate D2E/DX2                !
 ! D25   D(8,6,7,15)           179.7037         estimate D2E/DX2                !
 ! D26   D(8,6,7,16)           -59.8328         estimate D2E/DX2                !
 ! D27   D(8,6,7,17)            59.2241         estimate D2E/DX2                !
 ! D28   D(5,6,8,9)              0.0168         estimate D2E/DX2                !
 ! D29   D(5,6,8,18)          -179.9917         estimate D2E/DX2                !
 ! D30   D(7,6,8,9)           -179.995          estimate D2E/DX2                !
 ! D31   D(7,6,8,18)            -0.0035         estimate D2E/DX2                !
 ! D32   D(6,8,9,3)              0.0            estimate D2E/DX2                !
 ! D33   D(6,8,9,19)           179.9894         estimate D2E/DX2                !
 ! D34   D(18,8,9,3)          -179.9914         estimate D2E/DX2                !
 ! D35   D(18,8,9,19)           -0.002          estimate D2E/DX2                !
 --------------------------------------------------------------------------------
 Trust Radius=3.00D-01 FncErr=1.00D-07 GrdErr=1.00D-06 EigMax=2.50D+02 EigMin=1.00D-04
 Number of steps in this run=     95 maximum allowed number of steps=    114.
 GradGradGradGradGradGradGradGradGradGradGradGradGradGradGradGradGradGrad

                          Input orientation:                          
 ---------------------------------------------------------------------
 Center     Atomic      Atomic             Coordinates (Angstroms)
 Number     Number       Type             X           Y           Z
 ---------------------------------------------------------------------
      1          6           0       -3.186280    0.559110   -0.000890
      2          8           0       -2.279430   -0.514500    0.000190
      3          6           0       -0.942600   -0.236050    0.000430
      4          6           0       -0.391230    1.037980    0.000670
      5          6           0        0.986320    1.194350    0.000370
      6          6           0        1.839480    0.103840   -0.000160
      7          6           0        3.329250    0.272770   -0.000590
      8          6           0        1.275670   -1.169370   -0.000030
      9          6           0       -0.090690   -1.341600    0.000260
     10          1           0       -4.177680    0.108470   -0.001830
     11          1           0       -3.074450    1.182570    0.892590
     12          1           0       -3.072610    1.182260   -0.894370
     13          1           0       -1.016750    1.917040    0.001040
     14          1           0        1.396860    2.194350    0.000590
     15          1           0        3.601520    1.325140   -0.005890
     16          1           0        3.765120   -0.194220    0.881980
     17          1           0        3.765670   -0.203430   -0.877890
     18          1           0        1.921390   -2.035810   -0.000300
     19          1           0       -0.530150   -2.326700    0.000190
 ---------------------------------------------------------------------
                    Distance matrix (angstroms):
                    1          2          3          4          5
     1  C    0.000000
     2  O    1.405353   0.000000
     3  C    2.380416   1.365521   0.000000
     4  C    2.835776   2.444482   1.388222   0.000000
     5  C    4.220678   3.685823   2.401411   1.386397   0.000000
     6  C    5.046339   4.165065   2.802766   2.418406   1.384592
     7  C    6.521819   5.663664   4.302046   3.798357   2.517664
     8  C    4.785044   3.614912   2.406618   2.766035   2.381364
     9  C    3.632544   2.339803   1.395705   2.398484   2.755176
    10  H    1.089014   1.997861   3.253374   3.898871   5.276934
    11  H    1.095224   2.075688   2.711682   2.831271   4.157649
    12  H    1.095237   2.075661   2.710943   2.830497   4.156395
    13  H    2.559460   2.739845   2.154367   1.078898   2.129453
    14  H    4.866126   4.566506   3.373413   2.129427   1.080992
    15  H    6.830890   6.161971   4.804829   4.003068   2.618476
    16  H    7.047619   6.116921   4.789729   4.423830   3.229101
    17  H    7.048419   6.116455   4.789605   4.426374   3.232633
    18  H    5.729040   4.467804   3.382540   3.846609   3.362780
    19  H    3.922107   2.518740   2.130946   3.367547   3.833729
                    6          7          8          9         10
     6  C    0.000000
     7  C    1.499317   0.000000
     8  C    1.392460   2.509374   0.000000
     9  C    2.411401   3.781822   1.377172   0.000000
    10  H    6.017162   7.508728   5.601063   4.336611   0.000000
    11  H    5.109537   6.529386   5.025130   4.008804   1.780672
    12  H    5.107957   6.527620   5.023699   4.007752   1.780683
    13  H    3.383156   4.646649   3.844622   3.387672   3.641759
    14  H    2.136854   2.725179   3.365902   3.836111   5.952008
    15  H    2.143920   1.087033   3.410600   4.554553   7.873770
    16  H    2.138948   1.089492   2.815354   4.118396   7.997550
    17  H    2.138933   1.089442   2.811366   4.115591   7.997598
    18  H    2.141217   2.703999   1.080589   2.128472   6.465029
    19  H    3.394506   4.653194   2.144854   1.078678   4.385719
                   11         12         13         14         15
    11  H    0.000000
    12  H    1.786961   0.000000
    13  H    2.359754   2.359708   0.000000
    14  H    4.670329   4.669201   2.429488   0.000000
    15  H    6.737668   6.734525   4.656051   2.369830   0.000000
    16  H    6.976774   7.197546   5.300920   3.477179   1.767352
    17  H    7.200197   6.977283   5.304757   3.483150   1.767443
    18  H    6.009463   6.007942   4.925210   4.262556   3.757506
    19  H    4.425474   4.424606   4.271546   4.914597   5.514224
                   16         17         18         19
    16  H    0.000000
    17  H    1.759894   0.000000
    18  H    2.751220   2.743930   0.000000
    19  H    4.875897   4.871691   2.468738   0.000000
 Stoichiometry    C8H10O
 Framework group  C1[X(C8H10O)]
 Deg. of freedom    51
 Full point group                 C1      NOp   1
 Largest Abelian subgroup         C1      NOp   1
 Largest concise Abelian subgroup C1      NOp   1
                         Standard orientation:                         
 ---------------------------------------------------------------------
 Center     Atomic      Atomic             Coordinates (Angstroms)
 Number     Number       Type             X           Y           Z
 ---------------------------------------------------------------------
      1          6           0        3.212017   -0.494340   -0.000860
      2          8           0        2.291479    0.567556    0.000220
      3          6           0        0.958328    0.271992    0.000460
      4          6           0        0.423336   -1.009002    0.000700
      5          6           0       -0.952096   -1.183019    0.000400
      6          6           0       -1.819166   -0.103535   -0.000130
      7          6           0       -3.306648   -0.291549   -0.000560
      8          6           0       -1.271724    1.176798    0.000000
      9          6           0        0.092316    1.366530    0.000290
     10          1           0        4.197559   -0.031028   -0.001800
     11          1           0        3.108189   -1.119182    0.892620
     12          1           0        3.106345   -1.118896   -0.894340
     13          1           0        1.060074   -1.879971    0.001070
     14          1           0       -1.349783   -2.188199    0.000620
     15          1           0       -3.565405   -1.347323   -0.005860
     16          1           0       -3.748469    0.169815    0.882010
     17          1           0       -3.749137    0.179017   -0.877860
     18          1           0       -1.928498    2.034889   -0.000270
     19          1           0        0.519111    2.357183    0.000220
 ---------------------------------------------------------------------
 Rotational constants (GHZ):           4.8702214           0.9893702           0.8308899
 Standard basis: def2TZVP (5D, 7F)
 There are   384 symmetry adapted cartesian basis functions of A   symmetry.
 There are   339 symmetry adapted basis functions of A   symmetry.
   339 basis functions,   539 primitive gaussians,   384 cartesian basis functions
    33 alpha electrons       33 beta electrons
       nuclear repulsion energy       423.7512882975 Hartrees.
 NAtoms=   19 NActive=   19 NUniq=   19 SFac= 1.00D+00 NAtFMM=   60 NAOKFM=F Big=F
 Integral buffers will be    131072 words long.
 Raffenetti 2 integral format.
 Two-electron integral symmetry is turned on.
 One-electron integrals computed using PRISM.
   1 Symmetry operations used in ECPInt.
 ECPInt:  NShTT=    9730 NPrTT=   29148 LenC2=    9346 LenP2D=   22172.
 LDataN:  DoStor=T MaxTD1= 6 Len=  172
 NBasis=   339 RedAO= T EigKep=  7.70D-06  NBF=   339
 NBsUse=   339 1.00D-06 EigRej= -1.00D+00 NBFU=   339
 ExpMin= 9.52D-02 ExpMax= 2.70D+04 ExpMxC= 9.22D+02 IAcc=3 IRadAn=         5 AccDes= 0.00D+00
 Harris functional with IExCor= 1009 and IRadAn=       5 diagonalized for initial guess.
 HarFok:  IExCor= 1009 AccDes= 0.00D+00 IRadAn=         5 IDoV= 1 UseB2=F ITyADJ=14
 ICtDFT=  3500011 ScaDFX=  1.000000  1.000000  1.000000  1.000000
 FoFCou: FMM=F IPFlag=           0 FMFlag=      100000 FMFlg1=           0
         NFxFlg=           0 DoJE=T BraDBF=F KetDBF=T FulRan=T
         wScrn=  0.000000 ICntrl=       500 IOpCl=  0 I1Cent=   200000004 NGrid=           0
         NMat0=    1 NMatS0=      1 NMatT0=    0 NMatD0=    1 NMtDS0=    0 NMtDT0=    0
 Petite list used in FoFCou.
 Requested convergence on RMS density matrix=1.00D-08 within 128 cycles.
 Requested convergence on MAX density matrix=1.00D-06.
 Requested convergence on             energy=1.00D-06.
 No special actions if energy rises.
 Integral accuracy reduced to 1.0D-05 until final iterations.
 Initial convergence to 1.0D-05 achieved.  Increase integral accuracy.
 SCF Done:  E(RM062X) =  -386.060044963     A.U. after   15 cycles
            NFock= 15  Conv=0.58D-08     -V/T= 2.0048

 **********************************************************************

            Population analysis using the SCF Density.

 **********************************************************************

 Orbital symmetries:
       Occupied  (A) (A) (A) (A) (A) (A) (A) (A) (A) (A) (A) (A)
                 (A) (A) (A) (A) (A) (A) (A) (A) (A) (A) (A) (A)
                 (A) (A) (A) (A) (A) (A) (A) (A) (A)
       Virtual   (A) (A) (A) (A) (A) (A) (A) (A) (A) (A) (A) (A)
                 (A) (A) (A) (A) (A) (A) (A) (A) (A) (A) (A) (A)
                 (A) (A) (A) (A) (A) (A) (A) (A) (A) (A) (A) (A)
                 (A) (A) (A) (A) (A) (A) (A) (A) (A) (A) (A) (A)
                 (A) (A) (A) (A) (A) (A) (A) (A) (A) (A) (A) (A)
                 (A) (A) (A) (A) (A) (A) (A) (A) (A) (A) (A) (A)
                 (A) (A) (A) (A) (A) (A) (A) (A) (A) (A) (A) (A)
                 (A) (A) (A) (A) (A) (A) (A) (A) (A) (A) (A) (A)
                 (A) (A) (A) (A) (A) (A) (A) (A) (A) (A) (A) (A)
                 (A) (A) (A) (A) (A) (A) (A) (A) (A) (A) (A) (A)
                 (A) (A) (A) (A) (A) (A) (A) (A) (A) (A) (A) (A)
                 (A) (A) (A) (A) (A) (A) (A) (A) (A) (A) (A) (A)
                 (A) (A) (A) (A) (A) (A) (A) (A) (A) (A) (A) (A)
                 (A) (A) (A) (A) (A) (A) (A) (A) (A) (A) (A) (A)
                 (A) (A) (A) (A) (A) (A) (A) (A) (A) (A) (A) (A)
                 (A) (A) (A) (A) (A) (A) (A) (A) (A) (A) (A) (A)
                 (A) (A) (A) (A) (A) (A) (A) (A) (A) (A) (A) (A)
                 (A) (A) (A) (A) (A) (A) (A) (A) (A) (A) (A) (A)
                 (A) (A) (A) (A) (A) (A) (A) (A) (A) (A) (A) (A)
                 (A) (A) (A) (A) (A) (A) (A) (A) (A) (A) (A) (A)
                 (A) (A) (A) (A) (A) (A) (A) (A) (A) (A) (A) (A)
                 (A) (A) (A) (A) (A) (A) (A) (A) (A) (A) (A) (A)
                 (A) (A) (A) (A) (A) (A) (A) (A) (A) (A) (A) (A)
                 (A) (A) (A) (A) (A) (A) (A) (A) (A) (A) (A) (A)
                 (A) (A) (A) (A) (A) (A) (A) (A) (A) (A) (A) (A)
                 (A) (A) (A) (A) (A) (A)
 The electronic state is 1-A.
 Alpha  occ. eigenvalues --  -19.65223 -10.59627 -10.58790 -10.53759 -10.53565
 Alpha  occ. eigenvalues --  -10.53481 -10.53464 -10.53181 -10.52682  -1.18931
 Alpha  occ. eigenvalues --   -0.96169  -0.87241  -0.84550  -0.80853  -0.75326
 Alpha  occ. eigenvalues --   -0.69439  -0.65926  -0.60972  -0.56179  -0.54963
 Alpha  occ. eigenvalues --   -0.53309  -0.51096  -0.49209  -0.48820  -0.48581
 Alpha  occ. eigenvalues --   -0.44737  -0.44116  -0.42109  -0.41031  -0.38628
 Alpha  occ. eigenvalues --   -0.38243  -0.30799  -0.26835
 Alpha virt. eigenvalues --    0.02390   0.04184   0.07497   0.08162   0.10265
 Alpha virt. eigenvalues --    0.11086   0.12416   0.13638   0.14611   0.15028
 Alpha virt. eigenvalues --    0.15675   0.15705   0.16909   0.19022   0.19821
 Alpha virt. eigenvalues --    0.21002   0.21672   0.23146   0.24494   0.25622
 Alpha virt. eigenvalues --    0.26398   0.26969   0.27664   0.28884   0.29901
 Alpha virt. eigenvalues --    0.30352   0.32161   0.33935   0.34677   0.36412
 Alpha virt. eigenvalues --    0.36862   0.38582   0.38826   0.39554   0.40176
 Alpha virt. eigenvalues --    0.40635   0.41427   0.42390   0.44193   0.44981
 Alpha virt. eigenvalues --    0.46139   0.46207   0.47218   0.48945   0.49106
 Alpha virt. eigenvalues --    0.50349   0.50427   0.51762   0.51889   0.53787
 Alpha virt. eigenvalues --    0.53860   0.55136   0.56112   0.57308   0.59261
 Alpha virt. eigenvalues --    0.62994   0.63776   0.63964   0.65944   0.66580
 Alpha virt. eigenvalues --    0.69371   0.70328   0.71055   0.73933   0.75820
 Alpha virt. eigenvalues --    0.75886   0.77712   0.77994   0.79774   0.80294
 Alpha virt. eigenvalues --    0.81359   0.85758   0.88659   0.88921   0.89366
 Alpha virt. eigenvalues --    0.91503   0.91689   0.93807   0.96367   0.97161
 Alpha virt. eigenvalues --    0.99279   1.02034   1.02342   1.03181   1.05525
 Alpha virt. eigenvalues --    1.06847   1.10785   1.11907   1.13506   1.13884
 Alpha virt. eigenvalues --    1.18993   1.20154   1.21679   1.25250   1.25783
 Alpha virt. eigenvalues --    1.27764   1.27917   1.29895   1.32920   1.33928
 Alpha virt. eigenvalues --    1.37205   1.37976   1.40378   1.45635   1.48255
 Alpha virt. eigenvalues --    1.50086   1.51086   1.51266   1.54395   1.54750
 Alpha virt. eigenvalues --    1.56452   1.56821   1.57813   1.59300   1.59497
 Alpha virt. eigenvalues --    1.59766   1.60536   1.62021   1.63467   1.64276
 Alpha virt. eigenvalues --    1.67845   1.70570   1.71692   1.72987   1.73033
 Alpha virt. eigenvalues --    1.78569   1.78885   1.79962   1.82923   1.83685
 Alpha virt. eigenvalues --    1.87002   1.90070   1.90903   1.93877   1.95847
 Alpha virt. eigenvalues --    1.97592   2.00611   2.02884   2.03694   2.05579
 Alpha virt. eigenvalues --    2.08302   2.09761   2.10673   2.13082   2.15778
 Alpha virt. eigenvalues --    2.17075   2.19075   2.19824   2.23375   2.25563
 Alpha virt. eigenvalues --    2.26038   2.27912   2.30417   2.31959   2.33321
 Alpha virt. eigenvalues --    2.36052   2.36456   2.39667   2.40125   2.43004
 Alpha virt. eigenvalues --    2.43711   2.46987   2.51037   2.51988   2.54566
 Alpha virt. eigenvalues --    2.55289   2.55382   2.56385   2.58117   2.60446
 Alpha virt. eigenvalues --    2.60690   2.61719   2.65331   2.68781   2.70546
 Alpha virt. eigenvalues --    2.72035   2.73198   2.73529   2.73897   2.75109
 Alpha virt. eigenvalues --    2.78316   2.79403   2.81170   2.81995   2.84259
 Alpha virt. eigenvalues --    2.84347   2.85845   2.87120   2.89049   2.91589
 Alpha virt. eigenvalues --    2.93667   2.96961   2.97218   2.97580   2.99804
 Alpha virt. eigenvalues --    3.00003   3.03453   3.06400   3.09127   3.10166
 Alpha virt. eigenvalues --    3.10403   3.13551   3.14148   3.14184   3.17515
 Alpha virt. eigenvalues --    3.17618   3.18903   3.19230   3.21536   3.23954
 Alpha virt. eigenvalues --    3.24710   3.25136   3.26052   3.29190   3.30208
 Alpha virt. eigenvalues --    3.31501   3.32531   3.34940   3.35078   3.35772
 Alpha virt. eigenvalues --    3.38402   3.40600   3.41112   3.41212   3.42832
 Alpha virt. eigenvalues --    3.45569   3.46038   3.48736   3.50205   3.50408
 Alpha virt. eigenvalues --    3.51720   3.53889   3.54170   3.56276   3.59032
 Alpha virt. eigenvalues --    3.59073   3.63842   3.64890   3.70726   3.74969
 Alpha virt. eigenvalues --    3.78195   3.79305   3.80590   3.81146   3.85639
 Alpha virt. eigenvalues --    3.91450   3.92036   3.96435   4.01039   4.05146
 Alpha virt. eigenvalues --    4.08564   4.10837   4.12423   4.14844   4.17994
 Alpha virt. eigenvalues --    4.18396   4.18807   4.21895   4.23254   4.24010
 Alpha virt. eigenvalues --    4.24313   4.29425   4.34190   4.36986   4.38891
 Alpha virt. eigenvalues --    4.41856   4.47830   4.51437   4.53567   4.58580
 Alpha virt. eigenvalues --    4.61172   4.62558   4.64968   4.69213   4.82712
 Alpha virt. eigenvalues --    4.86468   4.92115   4.93090   4.95490   5.12778
 Alpha virt. eigenvalues --    5.20044   5.30002   5.35269   5.36960   5.44018
 Alpha virt. eigenvalues --    5.47863   5.61958   5.75963   5.90859   5.98294
 Alpha virt. eigenvalues --    6.31363   6.49374   6.64017   6.77022   6.85422
 Alpha virt. eigenvalues --    7.15588   7.37492  22.19310  22.50643  22.55805
 Alpha virt. eigenvalues --   22.82445  22.84667  22.88051  23.06275  23.44879
 Alpha virt. eigenvalues --   44.36793
          Condensed to atoms (all electrons):
               1          2          3          4          5          6
     1  C    4.901010   0.234549  -0.091882   0.008104  -0.007456   0.001795
     2  O    0.234549   7.948455   0.356370  -0.087250   0.010720  -0.000875
     3  C   -0.091882   0.356370   4.837149   0.266896   0.090386  -0.079066
     4  C    0.008104  -0.087250   0.266896   5.396554   0.252406   0.019143
     5  C   -0.007456   0.010720   0.090386   0.252406   5.179017   0.481622
     6  C    0.001795  -0.000875  -0.079066   0.019143   0.481622   4.962001
     7  C   -0.000005   0.000015  -0.001966   0.016918  -0.068146   0.271990
     8  C   -0.001944   0.003068  -0.005160  -0.108288  -0.012841   0.481684
     9  C    0.007605  -0.065341   0.462243   0.055985  -0.098317  -0.040729
    10  H    0.403202  -0.032177   0.006946  -0.001842   0.000398  -0.000072
    11  H    0.416066  -0.042479  -0.012959   0.007747  -0.001289   0.000147
    12  H    0.416063  -0.042503  -0.012940   0.007770  -0.001314   0.000153
    13  H    0.007940  -0.006291  -0.038069   0.400114  -0.010399   0.001589
    14  H   -0.000012  -0.000110  -0.000257  -0.008625   0.379293  -0.023543
    15  H    0.000003  -0.000001   0.000176   0.003129  -0.014161  -0.059572
    16  H   -0.000001  -0.000001   0.000124  -0.001180   0.002669  -0.043210
    17  H   -0.000001  -0.000001   0.000118  -0.001168   0.002892  -0.043614
    18  H    0.000025  -0.000148   0.008180  -0.004501   0.011955  -0.042975
    19  H    0.000093   0.008713  -0.050330   0.016235  -0.005644   0.009189
               7          8          9         10         11         12
     1  C   -0.000005  -0.001944   0.007605   0.403202   0.416066   0.416063
     2  O    0.000015   0.003068  -0.065341  -0.032177  -0.042479  -0.042503
     3  C   -0.001966  -0.005160   0.462243   0.006946  -0.012959  -0.012940
     4  C    0.016918  -0.108288   0.055985  -0.001842   0.007747   0.007770
     5  C   -0.068146  -0.012841  -0.098317   0.000398  -0.001289  -0.001314
     6  C    0.271990   0.481684  -0.040729  -0.000072   0.000147   0.000153
     7  C    5.075127  -0.075010   0.006171  -0.000000   0.000001   0.000001
     8  C   -0.075010   4.999817   0.508439   0.000162  -0.000257  -0.000261
     9  C    0.006171   0.508439   4.972587  -0.000945   0.001405   0.001428
    10  H   -0.000000   0.000162  -0.000945   0.514666  -0.020731  -0.020703
    11  H    0.000001  -0.000257   0.001405  -0.020731   0.567499  -0.060766
    12  H    0.000001  -0.000261   0.001428  -0.020703  -0.060766   0.567443
    13  H   -0.000367   0.001711   0.000811  -0.000305  -0.001067  -0.001069
    14  H   -0.007413   0.005983   0.000869   0.000002  -0.000023  -0.000024
    15  H    0.430481   0.013484  -0.000623   0.000000  -0.000000  -0.000000
    16  H    0.414491  -0.009099   0.000078   0.000000   0.000001  -0.000000
    17  H    0.415237  -0.009353   0.000123   0.000000  -0.000000   0.000001
    18  H   -0.001403   0.411648  -0.036357   0.000000  -0.000002  -0.000002
    19  H   -0.000076  -0.039303   0.414373  -0.000239   0.000128   0.000128
              13         14         15         16         17         18
     1  C    0.007940  -0.000012   0.000003  -0.000001  -0.000001   0.000025
     2  O   -0.006291  -0.000110  -0.000001  -0.000001  -0.000001  -0.000148
     3  C   -0.038069  -0.000257   0.000176   0.000124   0.000118   0.008180
     4  C    0.400114  -0.008625   0.003129  -0.001180  -0.001168  -0.004501
     5  C   -0.010399   0.379293  -0.014161   0.002669   0.002892   0.011955
     6  C    0.001589  -0.023543  -0.059572  -0.043210  -0.043614  -0.042975
     7  C   -0.000367  -0.007413   0.430481   0.414491   0.415237  -0.001403
     8  C    0.001711   0.005983   0.013484  -0.009099  -0.009353   0.411648
     9  C    0.000811   0.000869  -0.000623   0.000078   0.000123  -0.036357
    10  H   -0.000305   0.000002   0.000000   0.000000   0.000000   0.000000
    11  H   -0.001067  -0.000023  -0.000000   0.000001  -0.000000  -0.000002
    12  H   -0.001069  -0.000024  -0.000000  -0.000000   0.000001  -0.000002
    13  H    0.493131  -0.002669  -0.000057   0.000015   0.000015   0.000053
    14  H   -0.002669   0.514846   0.001540   0.000142   0.000136  -0.000318
    15  H   -0.000057   0.001540   0.537895  -0.023282  -0.023307  -0.000028
    16  H    0.000015   0.000142  -0.023282   0.544807  -0.038077   0.000092
    17  H    0.000015   0.000136  -0.023307  -0.038077   0.544633   0.000072
    18  H    0.000053  -0.000318  -0.000028   0.000092   0.000072   0.515668
    19  H   -0.000165   0.000072   0.000008  -0.000004  -0.000005  -0.006437
              19
     1  C    0.000093
     2  O    0.008713
     3  C   -0.050330
     4  C    0.016235
     5  C   -0.005644
     6  C    0.009189
     7  C   -0.000076
     8  C   -0.039303
     9  C    0.414373
    10  H   -0.000239
    11  H    0.000128
    12  H    0.000128
    13  H   -0.000165
    14  H    0.000072
    15  H    0.000008
    16  H   -0.000004
    17  H   -0.000005
    18  H   -0.006437
    19  H    0.505040
 Mulliken charges:
               1
     1  C   -0.295156
     2  O   -0.284713
     3  C    0.264041
     4  C   -0.238145
     5  C   -0.191791
     6  C    0.104343
     7  C   -0.476046
     8  C   -0.164478
     9  C   -0.189805
    10  H    0.151636
    11  H    0.146579
    12  H    0.146596
    13  H    0.155079
    14  H    0.140112
    15  H    0.134314
    16  H    0.152435
    17  H    0.152300
    18  H    0.144476
    19  H    0.148223
 Sum of Mulliken charges =  -0.00000
 Mulliken charges with hydrogens summed into heavy atoms:
               1
     1  C    0.149655
     2  O   -0.284713
     3  C    0.264041
     4  C   -0.083066
     5  C   -0.051679
     6  C    0.104343
     7  C   -0.036996
     8  C   -0.020002
     9  C   -0.041582
 Electronic spatial extent (au):  <R**2>=           1402.7799
 Charge=             -0.0000 electrons
 Dipole moment (field-independent basis, Debye):
    X=              0.2212    Y=             -1.0741    Z=             -0.0008  Tot=              1.0967
 Quadrupole moment (field-independent basis, Debye-Ang):
   XX=            -46.9166   YY=            -50.8776   ZZ=            -57.6361
   XY=             -3.6417   XZ=             -0.0036   YZ=             -0.0019
 Traceless Quadrupole moment (field-independent basis, Debye-Ang):
   XX=              4.8935   YY=              0.9325   ZZ=             -5.8260
   XY=             -3.6417   XZ=             -0.0036   YZ=             -0.0019
 Octapole moment (field-independent basis, Debye-Ang**2):
  XXX=             26.5563  YYY=              2.2086  ZZZ=              0.0060  XYY=              0.2811
  XXY=             -7.3342  XXZ=             -0.0151  XZZ=              4.9113  YZZ=              0.4206
  YYZ=             -0.0065  XYZ=              0.0005
 Hexadecapole moment (field-independent basis, Debye-Ang**3):
 XXXX=          -1368.3776 YYYY=           -326.8644 ZZZZ=            -78.2487 XXXY=            -19.2253
 XXXZ=             -0.0430 YYYX=              5.0700 YYYZ=              0.0016 ZZZX=             -0.0314
 ZZZY=             -0.0005 XXYY=           -297.7272 XXZZ=           -259.0966 YYZZ=            -78.3382
 XXYZ=             -0.0195 YYXZ=              0.0412 ZZXY=             -2.1599
 N-N= 4.237512882975D+02 E-N=-1.745485778376D+03  KE= 3.842328599437D+02
   1 Symmetry operations used in ECPInt.
 ECPInt:  NShTT=    9730 NPrTT=   29148 LenC2=    9346 LenP2D=   22172.
 LDataN:  DoStor=T MaxTD1= 7 Len=  274
 Calling FoFJK, ICntrl=      2127 FMM=F ISym2X=0 I1Cent= 0 IOpClX= 0 NMat=1 NMatS=1 NMatT=0.
 ***** Axes restored to original set *****
 -------------------------------------------------------------------
 Center     Atomic                   Forces (Hartrees/Bohr)
 Number     Number              X              Y              Z
 -------------------------------------------------------------------
      1        6          -0.001423936    0.001166405   -0.000007316
      2        8           0.006636495   -0.000393397    0.000008141
      3        6          -0.002040691   -0.001653063   -0.000007602
      4        6          -0.007904957    0.000507497    0.000004410
      5        6           0.002871704   -0.002563952    0.000003513
      6        6           0.001788309    0.003124917   -0.000007062
      7        6          -0.000666358   -0.000885222    0.000035324
      8        6          -0.002469101    0.001180329   -0.000004123
      9        6          -0.002863436   -0.000070899    0.000002068
     10        1           0.000766313    0.001375407    0.000003856
     11        1           0.000544640   -0.000447703   -0.000826094
     12        1           0.000540514   -0.000452260    0.000833745
     13        1          -0.001913096    0.000842379   -0.000004291
     14        1           0.001011378    0.001535223   -0.000011428
     15        1           0.001349238    0.000927899   -0.000007330
     16        1           0.001889375    0.000052190    0.000718090
     17        1           0.001891055    0.000049124   -0.000727787
     18        1           0.001251287   -0.002090948   -0.000004340
     19        1          -0.001258733   -0.002203928   -0.000001775
 -------------------------------------------------------------------
 Cartesian Forces:  Max     0.007904957 RMS     0.001862807

 GradGradGradGradGradGradGradGradGradGradGradGradGradGradGradGradGradGrad
 Berny optimization.
 FormGI is forming the generalized inverse of G from B-inverse, IUseBI=4.
 Internal  Forces:  Max     0.007168183 RMS     0.001863684
 Search for a local minimum.
 Step number   1 out of a maximum of   95
 All quantities printed in internal units (Hartrees-Bohrs-Radians)
 Mixed Optimization -- RFO/linear search
 Second derivative matrix not updated -- first step.
 ITU=  0
     Eigenvalues ---    0.00775   0.01621   0.01640   0.02148   0.02188
     Eigenvalues ---    0.02201   0.02248   0.02256   0.02275   0.02279
     Eigenvalues ---    0.02283   0.02317   0.07262   0.07374   0.10088
     Eigenvalues ---    0.10730   0.16000   0.16000   0.16000   0.16000
     Eigenvalues ---    0.16000   0.16000   0.16000   0.16000   0.16000
     Eigenvalues ---    0.16000   0.22000   0.22964   0.24000   0.25000
     Eigenvalues ---    0.25000   0.25000   0.32449   0.34214   0.34216
     Eigenvalues ---    0.34871   0.34877   0.34927   0.35158   0.35875
     Eigenvalues ---    0.35923   0.36128   0.36154   0.43093   0.43289
     Eigenvalues ---    0.44745   0.46987   0.47318   0.48024   0.49129
     Eigenvalues ---    0.51847
 RFO step:  Lambda=-9.52090997D-04 EMin= 7.74979147D-03
 Linear search not attempted -- first point.
 Iteration  1 RMS(Cart)=  0.03012871 RMS(Int)=  0.00035699
 Iteration  2 RMS(Cart)=  0.00054300 RMS(Int)=  0.00001720
 Iteration  3 RMS(Cart)=  0.00000015 RMS(Int)=  0.00001720
 Variable       Old X    -DE/DX   Delta X   Delta X   Delta X     New X
                                 (Linear)    (Quad)   (Total)
    R1        2.65573   0.00097   0.00000   0.00217   0.00217   2.65791
    R2        2.05794  -0.00127   0.00000  -0.00362  -0.00362   2.05432
    R3        2.06967  -0.00087   0.00000  -0.00255  -0.00255   2.06713
    R4        2.06970  -0.00088   0.00000  -0.00257  -0.00257   2.06713
    R5        2.58046  -0.00717   0.00000  -0.01380  -0.01380   2.56666
    R6        2.62336  -0.00104   0.00000  -0.00237  -0.00236   2.62100
    R7        2.63750  -0.00094   0.00000  -0.00236  -0.00235   2.63514
    R8        2.61991   0.00616   0.00000   0.01295   0.01295   2.63286
    R9        2.03882   0.00180   0.00000   0.00496   0.00496   2.04378
   R10        2.61650   0.00144   0.00000   0.00330   0.00330   2.61980
   R11        2.04278   0.00180   0.00000   0.00502   0.00502   2.04779
   R12        2.83330   0.00445   0.00000   0.01368   0.01368   2.84698
   R13        2.63137   0.00448   0.00000   0.00973   0.00973   2.64110
   R14        2.05420   0.00124   0.00000   0.00351   0.00351   2.05771
   R15        2.05884   0.00131   0.00000   0.00376   0.00376   2.06260
   R16        2.05875   0.00132   0.00000   0.00378   0.00378   2.06253
   R17        2.60248   0.00287   0.00000   0.00566   0.00566   2.60814
   R18        2.04202   0.00242   0.00000   0.00673   0.00673   2.04875
   R19        2.03841   0.00253   0.00000   0.00697   0.00697   2.04537
    A1        1.84556   0.00198   0.00000   0.01415   0.01415   1.85971
    A2        1.94804  -0.00091   0.00000  -0.00663  -0.00666   1.94138
    A3        1.94799  -0.00091   0.00000  -0.00661  -0.00664   1.94135
    A4        1.90627   0.00006   0.00000   0.00219   0.00219   1.90846
    A5        1.90627   0.00006   0.00000   0.00221   0.00221   1.90848
    A6        1.90820  -0.00019   0.00000  -0.00441  -0.00447   1.90372
    A7        2.06683  -0.00706   0.00000  -0.02813  -0.02813   2.03870
    A8        2.18459  -0.00470   0.00000  -0.01828  -0.01828   2.16631
    A9        2.02198   0.00178   0.00000   0.00754   0.00754   2.02952
   A10        2.07661   0.00293   0.00000   0.01074   0.01074   2.08736
   A11        2.09226  -0.00154   0.00000  -0.00706  -0.00706   2.08521
   A12        2.11470  -0.00032   0.00000  -0.00325  -0.00326   2.11144
   A13        2.07622   0.00186   0.00000   0.01032   0.01031   2.08654
   A14        2.12165   0.00088   0.00000   0.00501   0.00501   2.12666
   A15        2.07338  -0.00008   0.00000  -0.00027  -0.00027   2.07311
   A16        2.08815  -0.00080   0.00000  -0.00474  -0.00474   2.08341
   A17        2.12177   0.00106   0.00000   0.00370   0.00370   2.12548
   A18        2.06084  -0.00236   0.00000  -0.00839  -0.00839   2.05244
   A19        2.10058   0.00131   0.00000   0.00469   0.00469   2.10527
   A20        1.93687   0.00071   0.00000   0.00346   0.00345   1.94032
   A21        1.92729   0.00168   0.00000   0.01091   0.01086   1.93816
   A22        1.92732   0.00167   0.00000   0.01087   0.01082   1.93814
   A23        1.89516  -0.00142   0.00000  -0.00974  -0.00975   1.88541
   A24        1.89537  -0.00143   0.00000  -0.00981  -0.00982   1.88555
   A25        1.88043  -0.00138   0.00000  -0.00664  -0.00672   1.87372
   A26        2.11306   0.00157   0.00000   0.00732   0.00731   2.12037
   A27        2.08426  -0.00054   0.00000  -0.00210  -0.00210   2.08216
   A28        2.08587  -0.00104   0.00000  -0.00521  -0.00521   2.08065
   A29        2.10195  -0.00148   0.00000  -0.00761  -0.00761   2.09433
   A30        2.06544   0.00049   0.00000   0.00222   0.00222   2.06766
   A31        2.11580   0.00100   0.00000   0.00539   0.00539   2.12119
    D1        3.14070   0.00000   0.00000   0.00019   0.00019   3.14089
    D2       -1.07148   0.00078   0.00000   0.00783   0.00778  -1.06370
    D3        1.06971  -0.00078   0.00000  -0.00749  -0.00744   1.06227
    D4        0.00087  -0.00000   0.00000  -0.00019  -0.00019   0.00067
    D5       -3.14059  -0.00001   0.00000  -0.00035  -0.00035  -3.14095
    D6       -3.14115  -0.00001   0.00000  -0.00041  -0.00041  -3.14156
    D7        0.00039  -0.00001   0.00000  -0.00036  -0.00036   0.00003
    D8        0.00031  -0.00001   0.00000  -0.00024  -0.00024   0.00006
    D9       -3.14134  -0.00000   0.00000  -0.00019  -0.00019  -3.14153
   D10        3.14117   0.00001   0.00000   0.00038   0.00038   3.14155
   D11       -0.00025   0.00001   0.00000   0.00025   0.00025   0.00001
   D12       -0.00030   0.00001   0.00000   0.00023   0.00023  -0.00007
   D13        3.14147   0.00000   0.00000   0.00010   0.00010   3.14158
   D14       -0.00001  -0.00000   0.00000  -0.00003  -0.00003  -0.00004
   D15       -3.14157  -0.00000   0.00000  -0.00004  -0.00004   3.14158
   D16       -3.14155  -0.00000   0.00000  -0.00008  -0.00008   3.14155
   D17        0.00008  -0.00000   0.00000  -0.00009  -0.00009  -0.00001
   D18        3.14151   0.00001   0.00000   0.00041   0.00041  -3.14126
   D19       -0.00029   0.00001   0.00000   0.00032   0.00031   0.00002
   D20       -0.00012   0.00001   0.00000   0.00042   0.00042   0.00030
   D21        3.14127   0.00001   0.00000   0.00033   0.00032   3.14159
   D22       -0.00538  -0.00000   0.00000   0.00013   0.00013  -0.00526
   D23        2.09710  -0.00020   0.00000  -0.00259  -0.00262   2.09448
   D24       -2.10815   0.00021   0.00000   0.00296   0.00299  -2.10516
   D25        3.13642  -0.00000   0.00000   0.00023   0.00023   3.13665
   D26       -1.04428  -0.00020   0.00000  -0.00249  -0.00252  -1.04679
   D27        1.03366   0.00021   0.00000   0.00306   0.00309   1.03675
   D28        0.00029  -0.00001   0.00000  -0.00033  -0.00033  -0.00003
   D29       -3.14145  -0.00000   0.00000  -0.00015  -0.00015   3.14159
   D30       -3.14150  -0.00001   0.00000  -0.00042  -0.00042   3.14126
   D31       -0.00006  -0.00001   0.00000  -0.00025  -0.00025  -0.00031
   D32        0.00000   0.00000   0.00000   0.00005   0.00006   0.00006
   D33        3.14141   0.00000   0.00000   0.00019   0.00019  -3.14159
   D34       -3.14144  -0.00000   0.00000  -0.00012  -0.00012  -3.14156
   D35       -0.00004   0.00000   0.00000   0.00001   0.00001  -0.00002
         Item               Value     Threshold  Converged?
 Maximum Force            0.007168     0.000450     NO 
 RMS     Force            0.001864     0.000300     NO 
 Maximum Displacement     0.115763     0.001800     NO 
 RMS     Displacement     0.030363     0.001200     NO 
 Predicted change in Energy=-4.777350D-04
 GradGradGradGradGradGradGradGradGradGradGradGradGradGradGradGradGradGrad

                          Input orientation:                          
 ---------------------------------------------------------------------
 Center     Atomic      Atomic             Coordinates (Angstroms)
 Number     Number       Type             X           Y           Z
 ---------------------------------------------------------------------
      1          6           0       -3.156377    0.572526   -0.000473
      2          8           0       -2.284628   -0.531242    0.000195
      3          6           0       -0.953641   -0.260632    0.000045
      4          6           0       -0.420012    1.019575    0.000056
      5          6           0        0.963305    1.185644   -0.000149
      6          6           0        1.829998    0.103622   -0.000320
      7          6           0        3.325599    0.284974   -0.000121
      8          6           0        1.268028   -1.176025   -0.000310
      9          6           0       -0.099438   -1.362836   -0.000098
     10          1           0       -4.166101    0.169729   -0.000978
     11          1           0       -3.013334    1.190859    0.890463
     12          1           0       -3.012296    1.190556   -0.891453
     13          1           0       -1.061736    1.890137    0.000221
     14          1           0        1.368103    2.190844   -0.000151
     15          1           0        3.593793    1.340308   -0.005177
     16          1           0        3.775985   -0.173752    0.881953
     17          1           0        3.777265   -0.182639   -0.876808
     18          1           0        1.920362   -2.041959   -0.000447
     19          1           0       -0.535465   -2.353490   -0.000088
 ---------------------------------------------------------------------
                    Distance matrix (angstroms):
                    1          2          3          4          5
     1  C    0.000000
     2  O    1.406503   0.000000
     3  C    2.355038   1.358219   0.000000
     4  C    2.772643   2.425248   1.386972   0.000000
     5  C    4.165057   3.673795   2.401332   1.393250   0.000000
     6  C    5.008374   4.163317   2.807370   2.429304   1.386336
     7  C    6.488351   5.669291   4.313882   3.816967   2.528169
     8  C    4.757394   3.610694   2.402864   2.769502   2.381247
     9  C    3.618080   2.338077   1.394458   2.403882   2.761191
    10  H    1.087101   2.007810   3.241160   3.841279   5.229043
    11  H    1.093876   2.071043   2.672453   2.747268   4.075153
    12  H    1.093876   2.071020   2.671849   2.746627   4.074292
    13  H    2.474595   2.712663   2.153485   1.081522   2.144086
    14  H    4.805193   4.555459   3.376423   2.137575   1.083646
    15  H    6.793697   6.169163   4.821016   4.026603   2.635035
    16  H    7.028034   6.134846   4.811930   4.450636   3.246110
    17  H    7.029483   6.134917   4.812112   4.453240   3.249477
    18  H    5.710414   4.468133   3.381275   3.853615   3.366509
    19  H    3.928200   2.525898   2.134226   3.375040   3.843407
                    6          7          8          9         10
     6  C    0.000000
     7  C    1.506555   0.000000
     8  C    1.397608   2.523513   0.000000
     9  C    2.423474   3.800810   1.380168   0.000000
    10  H    5.996464   7.492587   5.598287   4.345861   0.000000
    11  H    5.043158   6.464969   4.972491   3.975581   1.779395
    12  H    5.042158   6.464013   4.971520   3.974804   1.779410
    13  H    3.399083   4.671751   3.850864   3.392323   3.549209
    14  H    2.137719   2.732056   3.368356   3.844779   5.891717
    15  H    2.154156   1.088891   3.426535   4.576786   7.847690
    16  H    2.154578   1.091481   2.841265   4.148595   7.998393
    17  H    2.154536   1.091442   2.837488   4.146121   7.999270
    18  H    2.147484   2.718329   1.084151   2.130916   6.475848
    19  H    3.410691   4.676463   2.153836   1.082365   4.421329
                   11         12         13         14         15
    11  H    0.000000
    12  H    1.781917   0.000000
    13  H    2.256159   2.255921   0.000000
    14  H    4.581501   4.580709   2.448376   0.000000
    15  H    6.669230   6.666958   4.687888   2.382673   0.000000
    16  H    6.925105   7.147522   5.332977   3.488168   1.764248
    17  H    7.149963   6.927050   5.336808   3.493710   1.764305
    18  H    5.965416   5.964408   4.935008   4.268679   3.773609
    19  H    4.415350   4.414689   4.276135   4.926920   5.540302
                   16         17         18         19
    16  H    0.000000
    17  H    1.758784   0.000000
    18  H    2.777078   2.770049   0.000000
    19  H    4.910993   4.907227   2.475508   0.000000
 Stoichiometry    C8H10O
 Framework group  C1[X(C8H10O)]
 Deg. of freedom    51
 Full point group                 C1      NOp   1
 Largest Abelian subgroup         C1      NOp   1
 Largest concise Abelian subgroup C1      NOp   1
                         Standard orientation:                         
 ---------------------------------------------------------------------
 Center     Atomic      Atomic             Coordinates (Angstroms)
 Number     Number       Type             X           Y           Z
 ---------------------------------------------------------------------
      1          6           0        3.176630   -0.516872   -0.000335
      2          8           0        2.291761    0.576407    0.000333
      3          6           0        0.964100    0.289921    0.000183
      4          6           0        0.445799   -0.996568    0.000194
      5          6           0       -0.935436   -1.179146   -0.000011
      6          6           0       -1.814990   -0.107552   -0.000182
      7          6           0       -3.308318   -0.306753    0.000018
      8          6           0       -1.268342    1.178715   -0.000171
      9          6           0        0.096796    1.381844    0.000040
     10          1           0        4.181472   -0.102045   -0.000840
     11          1           0        3.040981   -1.136868    0.890602
     12          1           0        3.039940   -1.136578   -0.891315
     13          1           0        1.097874   -1.859405    0.000359
     14          1           0       -1.328201   -2.189109   -0.000012
     15          1           0       -3.563889   -1.365214   -0.005038
     16          1           0       -3.764151    0.146563    0.882091
     17          1           0       -3.765537    0.155433   -0.876670
     18          1           0       -1.930972    2.036798   -0.000309
     19          1           0        0.520960    2.377635    0.000051
 ---------------------------------------------------------------------
 Rotational constants (GHZ):           4.8255575           0.9963001           0.8344161
 Standard basis: def2TZVP (5D, 7F)
 There are   384 symmetry adapted cartesian basis functions of A   symmetry.
 There are   339 symmetry adapted basis functions of A   symmetry.
   339 basis functions,   539 primitive gaussians,   384 cartesian basis functions
    33 alpha electrons       33 beta electrons
       nuclear repulsion energy       423.9738520809 Hartrees.
 NAtoms=   19 NActive=   19 NUniq=   19 SFac= 1.00D+00 NAtFMM=   60 NAOKFM=F Big=F
 Integral buffers will be    131072 words long.
 Raffenetti 2 integral format.
 Two-electron integral symmetry is turned on.
 One-electron integrals computed using PRISM.
   1 Symmetry operations used in ECPInt.
 ECPInt:  NShTT=    9730 NPrTT=   29148 LenC2=    9350 LenP2D=   22200.
 LDataN:  DoStor=T MaxTD1= 6 Len=  172
 NBasis=   339 RedAO= T EigKep=  7.81D-06  NBF=   339
 NBsUse=   339 1.00D-06 EigRej= -1.00D+00 NBFU=   339
 Initial guess from the checkpoint file:  "/home/svss/projects/Project-Philicity/GS/hydrocarbon/set-1/GS/mol_6_hc/mol_6_hc.chk"
 B after Tr=     0.000000    0.000000   -0.000000
         Rot=    1.000000    0.000003    0.000002   -0.000134 Ang=   0.02 deg.
 ExpMin= 9.52D-02 ExpMax= 2.70D+04 ExpMxC= 9.22D+02 IAcc=3 IRadAn=         5 AccDes= 0.00D+00
 Harris functional with IExCor= 1009 and IRadAn=       5 diagonalized for initial guess.
 HarFok:  IExCor= 1009 AccDes= 0.00D+00 IRadAn=         5 IDoV= 1 UseB2=F ITyADJ=14
 ICtDFT=  3500011 ScaDFX=  1.000000  1.000000  1.000000  1.000000
 FoFCou: FMM=F IPFlag=           0 FMFlag=      100000 FMFlg1=           0
         NFxFlg=           0 DoJE=T BraDBF=F KetDBF=T FulRan=T
         wScrn=  0.000000 ICntrl=       500 IOpCl=  0 I1Cent=   200000004 NGrid=           0
         NMat0=    1 NMatS0=      1 NMatT0=    0 NMatD0=    1 NMtDS0=    0 NMtDT0=    0
 Petite list used in FoFCou.
 Requested convergence on RMS density matrix=1.00D-08 within 128 cycles.
 Requested convergence on MAX density matrix=1.00D-06.
 Requested convergence on             energy=1.00D-06.
 No special actions if energy rises.
 Integral accuracy reduced to 1.0D-05 until final iterations.
 Initial convergence to 1.0D-05 achieved.  Increase integral accuracy.
 SCF Done:  E(RM062X) =  -386.060348356     A.U. after   12 cycles
            NFock= 12  Conv=0.46D-08     -V/T= 2.0049
   1 Symmetry operations used in ECPInt.
 ECPInt:  NShTT=    9730 NPrTT=   29148 LenC2=    9350 LenP2D=   22200.
 LDataN:  DoStor=T MaxTD1= 7 Len=  274
 Calling FoFJK, ICntrl=      2127 FMM=F ISym2X=0 I1Cent= 0 IOpClX= 0 NMat=1 NMatS=1 NMatT=0.
 ***** Axes restored to original set *****
 -------------------------------------------------------------------
 Center     Atomic                   Forces (Hartrees/Bohr)
 Number     Number              X              Y              Z
 -------------------------------------------------------------------
      1        6          -0.002250994    0.000351025    0.000000631
      2        8           0.000128647   -0.000035532   -0.000008325
      3        6          -0.000042685   -0.000327080    0.000009763
      4        6           0.000509635    0.001460169   -0.000000445
      5        6           0.000763551   -0.000864004    0.000002498
      6        6           0.000558227    0.000938150   -0.000002086
      7        6          -0.001472332   -0.000609448    0.000008734
      8        6          -0.000712354    0.000005263    0.000006360
      9        6           0.000968895   -0.000465208   -0.000000451
     10        1           0.000271730   -0.000189301    0.000001576
     11        1          -0.000241526   -0.000147438   -0.000029338
     12        1          -0.000246853   -0.000149360    0.000029589
     13        1           0.001438308   -0.000510753   -0.000002354
     14        1           0.000072093    0.000100584   -0.000002716
     15        1          -0.000029377    0.000212788   -0.000001327
     16        1           0.000030548    0.000060619    0.000058130
     17        1           0.000035685    0.000062960   -0.000065166
     18        1           0.000034688   -0.000083897   -0.000002814
     19        1           0.000184113    0.000190465   -0.000002258
 -------------------------------------------------------------------
 Cartesian Forces:  Max     0.002250994 RMS     0.000549221

 GradGradGradGradGradGradGradGradGradGradGradGradGradGradGradGradGradGrad
 Berny optimization.
 Using GEDIIS/GDIIS optimizer.
 FormGI is forming the generalized inverse of G from B-inverse, IUseBI=4.
 Internal  Forces:  Max     0.006454915 RMS     0.000974758
 Search for a local minimum.
 Step number   2 out of a maximum of   95
 All quantities printed in internal units (Hartrees-Bohrs-Radians)
 Mixed Optimization -- En-DIIS/RFO-DIIS
 Update second derivatives using D2CorX and points    1    2
 DE= -3.03D-04 DEPred=-4.78D-04 R= 6.35D-01
 TightC=F SS=  1.41D+00  RLast= 6.05D-02 DXNew= 5.0454D-01 1.8140D-01
 Trust test= 6.35D-01 RLast= 6.05D-02 DXMaxT set to 3.00D-01
 ITU=  1  0
 Use linear search instead of GDIIS.
     Eigenvalues ---    0.00775   0.01621   0.01635   0.02148   0.02188
     Eigenvalues ---    0.02201   0.02248   0.02256   0.02275   0.02279
     Eigenvalues ---    0.02283   0.02317   0.07198   0.07223   0.10204
     Eigenvalues ---    0.10664   0.15386   0.16000   0.16000   0.16000
     Eigenvalues ---    0.16000   0.16000   0.16000   0.16000   0.16000
     Eigenvalues ---    0.16168   0.22000   0.22186   0.24010   0.24997
     Eigenvalues ---    0.25000   0.30751   0.34009   0.34215   0.34430
     Eigenvalues ---    0.34871   0.34875   0.34946   0.35105   0.35660
     Eigenvalues ---    0.35895   0.36103   0.37707   0.42971   0.44069
     Eigenvalues ---    0.45007   0.46327   0.47455   0.48029   0.49478
     Eigenvalues ---    0.56770
 RFO step:  Lambda=-7.90693467D-05 EMin= 7.74976447D-03
 Quartic linear search produced a step of -0.26953.
 Iteration  1 RMS(Cart)=  0.01516444 RMS(Int)=  0.00007971
 Iteration  2 RMS(Cart)=  0.00011899 RMS(Int)=  0.00000413
 Iteration  3 RMS(Cart)=  0.00000000 RMS(Int)=  0.00000413
 Variable       Old X    -DE/DX   Delta X   Delta X   Delta X     New X
                                 (Linear)    (Quad)   (Total)
    R1        2.65791   0.00142  -0.00059   0.00310   0.00252   2.66042
    R2        2.05432  -0.00018   0.00097  -0.00170  -0.00073   2.05359
    R3        2.06713  -0.00014   0.00069  -0.00123  -0.00055   2.06658
    R4        2.06713  -0.00014   0.00069  -0.00125  -0.00055   2.06657
    R5        2.56666   0.00233   0.00372  -0.00171   0.00201   2.56867
    R6        2.62100   0.00185   0.00064   0.00214   0.00278   2.62378
    R7        2.63514   0.00072   0.00063   0.00038   0.00102   2.63616
    R8        2.63286   0.00012  -0.00349   0.00493   0.00144   2.63430
    R9        2.04378  -0.00126  -0.00134  -0.00074  -0.00208   2.04170
   R10        2.61980  -0.00122  -0.00089  -0.00074  -0.00163   2.61816
   R11        2.04779   0.00012  -0.00135   0.00208   0.00073   2.04852
   R12        2.84698  -0.00146  -0.00369   0.00175  -0.00194   2.84504
   R13        2.64110  -0.00032  -0.00262   0.00286   0.00024   2.64133
   R14        2.05771   0.00020  -0.00095   0.00170   0.00076   2.05846
   R15        2.06260   0.00003  -0.00101   0.00145   0.00043   2.06303
   R16        2.06253   0.00004  -0.00102   0.00147   0.00045   2.06297
   R17        2.60814  -0.00086  -0.00153   0.00073  -0.00080   2.60734
   R18        2.04875   0.00009  -0.00181   0.00264   0.00083   2.04958
   R19        2.04537  -0.00025  -0.00188   0.00205   0.00017   2.04554
    A1        1.85971  -0.00062  -0.00381   0.00221  -0.00160   1.85810
    A2        1.94138   0.00026   0.00180  -0.00118   0.00062   1.94201
    A3        1.94135   0.00026   0.00179  -0.00115   0.00065   1.94199
    A4        1.90846  -0.00004  -0.00059   0.00023  -0.00036   1.90810
    A5        1.90848  -0.00004  -0.00060   0.00023  -0.00036   1.90812
    A6        1.90372   0.00017   0.00121  -0.00025   0.00097   1.90469
    A7        2.03870   0.00645   0.00758   0.00837   0.01595   2.05465
    A8        2.16631   0.00346   0.00493   0.00305   0.00798   2.17428
    A9        2.02952  -0.00226  -0.00203  -0.00403  -0.00606   2.02346
   A10        2.08736  -0.00119  -0.00290   0.00098  -0.00192   2.08544
   A11        2.08521  -0.00000   0.00190  -0.00223  -0.00032   2.08488
   A12        2.11144   0.00087   0.00088   0.00248   0.00336   2.11480
   A13        2.08654  -0.00087  -0.00278  -0.00025  -0.00303   2.08350
   A14        2.12666   0.00026  -0.00135   0.00259   0.00124   2.12791
   A15        2.07311  -0.00010   0.00007  -0.00031  -0.00024   2.07288
   A16        2.08341  -0.00016   0.00128  -0.00229  -0.00101   2.08240
   A17        2.12548  -0.00015  -0.00100   0.00125   0.00025   2.12572
   A18        2.05244   0.00020   0.00226  -0.00312  -0.00085   2.05159
   A19        2.10527  -0.00006  -0.00126   0.00187   0.00060   2.10587
   A20        1.94032  -0.00017  -0.00093   0.00020  -0.00073   1.93960
   A21        1.93816   0.00007  -0.00293   0.00467   0.00175   1.93991
   A22        1.93814   0.00008  -0.00292   0.00467   0.00177   1.93991
   A23        1.88541  -0.00000   0.00263  -0.00408  -0.00144   1.88396
   A24        1.88555  -0.00000   0.00265  -0.00413  -0.00147   1.88407
   A25        1.87372   0.00003   0.00181  -0.00185  -0.00002   1.87370
   A26        2.12037   0.00017  -0.00197   0.00275   0.00078   2.12115
   A27        2.08216  -0.00006   0.00057  -0.00068  -0.00011   2.08205
   A28        2.08065  -0.00011   0.00140  -0.00207  -0.00067   2.07999
   A29        2.09433   0.00056   0.00205  -0.00098   0.00107   2.09540
   A30        2.06766  -0.00018  -0.00060   0.00032  -0.00028   2.06738
   A31        2.12119  -0.00038  -0.00145   0.00066  -0.00079   2.12040
    D1        3.14089   0.00000  -0.00005   0.00030   0.00025   3.14113
    D2       -1.06370  -0.00028  -0.00210   0.00127  -0.00082  -1.06451
    D3        1.06227   0.00029   0.00201  -0.00069   0.00131   1.06358
    D4        0.00067  -0.00000   0.00005  -0.00017  -0.00012   0.00055
    D5       -3.14095  -0.00000   0.00009  -0.00023  -0.00014  -3.14108
    D6       -3.14156  -0.00000   0.00011  -0.00025  -0.00014   3.14149
    D7        0.00003  -0.00000   0.00010  -0.00024  -0.00014  -0.00011
    D8        0.00006  -0.00000   0.00007  -0.00019  -0.00012  -0.00006
    D9       -3.14153  -0.00000   0.00005  -0.00018  -0.00013   3.14152
   D10        3.14155   0.00000  -0.00010   0.00024   0.00013  -3.14151
   D11        0.00001   0.00000  -0.00007   0.00018   0.00011   0.00012
   D12       -0.00007   0.00000  -0.00006   0.00018   0.00012   0.00005
   D13        3.14158   0.00000  -0.00003   0.00013   0.00010  -3.14151
   D14       -0.00004   0.00000   0.00001   0.00000   0.00001  -0.00003
   D15        3.14158  -0.00000   0.00001  -0.00006  -0.00005   3.14153
   D16        3.14155   0.00000   0.00002  -0.00001   0.00002   3.14157
   D17       -0.00001  -0.00000   0.00002  -0.00006  -0.00004  -0.00005
   D18       -3.14126   0.00000  -0.00011   0.00025   0.00014  -3.14112
   D19        0.00002   0.00000  -0.00008   0.00019   0.00010   0.00013
   D20        0.00030   0.00000  -0.00011   0.00031   0.00020   0.00050
   D21        3.14159   0.00000  -0.00009   0.00024   0.00016  -3.14144
   D22       -0.00526   0.00000  -0.00003   0.00031   0.00028  -0.00498
   D23        2.09448  -0.00007   0.00071  -0.00157  -0.00086   2.09363
   D24       -2.10516   0.00007  -0.00081   0.00226   0.00145  -2.10372
   D25        3.13665   0.00000  -0.00006   0.00039   0.00032   3.13697
   D26       -1.04679  -0.00007   0.00068  -0.00149  -0.00081  -1.04761
   D27        1.03675   0.00007  -0.00083   0.00233   0.00149   1.03823
   D28       -0.00003  -0.00000   0.00009  -0.00019  -0.00010  -0.00014
   D29        3.14159  -0.00000   0.00004  -0.00014  -0.00010   3.14149
   D30        3.14126  -0.00000   0.00011  -0.00026  -0.00015   3.14111
   D31       -0.00031  -0.00000   0.00007  -0.00021  -0.00014  -0.00045
   D32        0.00006  -0.00000  -0.00001   0.00001  -0.00000   0.00005
   D33       -3.14159  -0.00000  -0.00005   0.00007   0.00002  -3.14157
   D34       -3.14156   0.00000   0.00003  -0.00004  -0.00001  -3.14157
   D35       -0.00002   0.00000  -0.00000   0.00002   0.00001  -0.00001
         Item               Value     Threshold  Converged?
 Maximum Force            0.006455     0.000450     NO 
 RMS     Force            0.000975     0.000300     NO 
 Maximum Displacement     0.060411     0.001800     NO 
 RMS     Displacement     0.015167     0.001200     NO 
 Predicted change in Energy=-9.145488D-05
 GradGradGradGradGradGradGradGradGradGradGradGradGradGradGradGradGradGrad

                          Input orientation:                          
 ---------------------------------------------------------------------
 Center     Atomic      Atomic             Coordinates (Angstroms)
 Number     Number       Type             X           Y           Z
 ---------------------------------------------------------------------
      1          6           0       -3.175090    0.564733   -0.000325
      2          8           0       -2.281783   -0.523385    0.000180
      3          6           0       -0.950558   -0.248626   -0.000087
      4          6           0       -0.409937    1.030241   -0.000190
      5          6           0        0.975006    1.189002   -0.000344
      6          6           0        1.836718    0.104112   -0.000364
      7          6           0        3.332075    0.278839    0.000075
      8          6           0        1.268365   -1.172851   -0.000378
      9          6           0       -0.099451   -1.353899   -0.000212
     10          1           0       -4.175984    0.141460   -0.000486
     11          1           0       -3.044757    1.185392    0.890589
     12          1           0       -3.044264    1.184955   -0.891466
     13          1           0       -1.043701    1.905258   -0.000160
     14          1           0        1.385080    2.192479   -0.000479
     15          1           0        3.604191    1.333584   -0.004668
     16          1           0        3.782060   -0.180631    0.882251
     17          1           0        3.783542   -0.189027   -0.876876
     18          1           0        1.916763   -2.042283   -0.000496
     19          1           0       -0.538863   -2.343154   -0.000205
 ---------------------------------------------------------------------
                    Distance matrix (angstroms):
                    1          2          3          4          5
     1  C    0.000000
     2  O    1.407834   0.000000
     3  C    2.368564   1.359284   0.000000
     4  C    2.804063   2.432604   1.388443   0.000000
     5  C    4.196785   3.679531   2.403034   1.394013   0.000000
     6  C    5.032930   4.166030   2.809507   2.430056   1.385472
     7  C    6.513442   5.670888   4.314993   3.816708   2.526692
     8  C    4.771109   3.609066   2.403708   2.769533   2.380002
     9  C    3.625011   2.335022   1.394996   2.404273   2.760581
    10  H    1.086715   2.007490   3.248929   3.869502   5.256429
    11  H    1.093586   2.072408   2.689866   2.785648   4.117314
    12  H    1.093583   2.072398   2.689483   2.785317   4.116874
    13  H    2.517901   2.726015   2.155897   1.080422   2.142009
    14  H    4.841974   4.563092   3.378491   2.138430   1.084033
    15  H    6.822741   6.171957   4.821737   4.025576   2.633161
    16  H    7.052406   6.137240   4.814646   4.451713   3.245677
    17  H    7.054010   6.137524   4.814978   4.454263   3.248869
    18  H    5.720446   4.464846   3.382120   3.854081   3.365726
    19  H    3.924984   2.519788   2.134606   3.375859   3.842906
                    6          7          8          9         10
     6  C    0.000000
     7  C    1.505531   0.000000
     8  C    1.397734   2.523153   0.000000
     9  C    2.423746   3.800158   1.379746   0.000000
    10  H    6.012818   7.509316   5.600745   4.342145   0.000000
    11  H    5.078559   6.502218   4.995813   3.989530   1.778618
    12  H    5.078018   6.501815   4.995203   3.988990   1.778627
    13  H    3.397196   4.668261   3.849728   3.393187   3.594743
    14  H    2.136645   2.729983   3.367353   3.844559   5.927235
    15  H    2.153040   1.089292   3.426123   4.575975   7.870978
    16  H    2.155097   1.091711   2.842920   4.149870   8.013328
    17  H    2.155071   1.091679   2.839414   4.147662   8.014446
    18  H    2.147887   2.718587   1.084589   2.130491   6.472272
    19  H    3.410645   4.675362   2.153064   1.082455   4.404765
                   11         12         13         14         15
    11  H    0.000000
    12  H    1.782055   0.000000
    13  H    2.305616   2.305540   0.000000
    14  H    4.629437   4.629045   2.445706   0.000000
    15  H    6.710585   6.708983   4.682919   2.379531   0.000000
    16  H    6.962149   7.183982   5.330812   3.486599   1.763834
    17  H    7.186002   6.964695   5.334505   3.491742   1.763876
    18  H    5.985700   5.985039   4.934312   4.268008   3.774110
    19  H    4.418558   4.418024   4.278302   4.926817   5.539253
                   16         17         18         19
    16  H    0.000000
    17  H    1.759147   0.000000
    18  H    2.779266   2.772627   0.000000
    19  H    4.911782   4.908360   2.473990   0.000000
 Stoichiometry    C8H10O
 Framework group  C1[X(C8H10O)]
 Deg. of freedom    51
 Full point group                 C1      NOp   1
 Largest Abelian subgroup         C1      NOp   1
 Largest concise Abelian subgroup C1      NOp   1
                         Standard orientation:                         
 ---------------------------------------------------------------------
 Center     Atomic      Atomic             Coordinates (Angstroms)
 Number     Number       Type             X           Y           Z
 ---------------------------------------------------------------------
      1          6           0        3.196996   -0.506200   -0.000151
      2          8           0        2.290782    0.571192    0.000354
      3          6           0        0.962927    0.280583    0.000088
      4          6           0        0.437589   -1.004638   -0.000015
      5          6           0       -0.945363   -1.179897   -0.000170
      6          6           0       -1.819946   -0.105356   -0.000190
      7          6           0       -3.313114   -0.297896    0.000249
      8          6           0       -1.266856    1.178291   -0.000204
      9          6           0        0.098704    1.375632   -0.000037
     10          1           0        4.192774   -0.071026   -0.000312
     11          1           0        3.074072   -1.128368    0.890763
     12          1           0        3.073574   -1.127937   -0.891292
     13          1           0        1.081739   -1.872038    0.000014
     14          1           0       -1.343446   -2.188191   -0.000305
     15          1           0       -3.572637   -1.355811   -0.004494
     16          1           0       -3.768544    0.156177    0.882425
     17          1           0       -3.770127    0.164555   -0.876701
     18          1           0       -1.925573    2.039932   -0.000321
     19          1           0        0.526292    2.370055   -0.000031
 ---------------------------------------------------------------------
 Rotational constants (GHZ):           4.8441127           0.9908692           0.8311537
 Standard basis: def2TZVP (5D, 7F)
 There are   384 symmetry adapted cartesian basis functions of A   symmetry.
 There are   339 symmetry adapted basis functions of A   symmetry.
   339 basis functions,   539 primitive gaussians,   384 cartesian basis functions
    33 alpha electrons       33 beta electrons
       nuclear repulsion energy       423.5288639775 Hartrees.
 NAtoms=   19 NActive=   19 NUniq=   19 SFac= 1.00D+00 NAtFMM=   60 NAOKFM=F Big=F
 Integral buffers will be    131072 words long.
 Raffenetti 2 integral format.
 Two-electron integral symmetry is turned on.
 One-electron integrals computed using PRISM.
   1 Symmetry operations used in ECPInt.
 ECPInt:  NShTT=    9730 NPrTT=   29148 LenC2=    9345 LenP2D=   22179.
 LDataN:  DoStor=T MaxTD1= 6 Len=  172
 NBasis=   339 RedAO= T EigKep=  7.81D-06  NBF=   339
 NBsUse=   339 1.00D-06 EigRej= -1.00D+00 NBFU=   339
 Initial guess from the checkpoint file:  "/home/svss/projects/Project-Philicity/GS/hydrocarbon/set-1/GS/mol_6_hc/mol_6_hc.chk"
 B after Tr=     0.000000   -0.000000    0.000000
         Rot=    1.000000   -0.000002   -0.000001    0.000308 Ang=  -0.04 deg.
 ExpMin= 9.52D-02 ExpMax= 2.70D+04 ExpMxC= 9.22D+02 IAcc=3 IRadAn=         5 AccDes= 0.00D+00
 Harris functional with IExCor= 1009 and IRadAn=       5 diagonalized for initial guess.
 HarFok:  IExCor= 1009 AccDes= 0.00D+00 IRadAn=         5 IDoV= 1 UseB2=F ITyADJ=14
 ICtDFT=  3500011 ScaDFX=  1.000000  1.000000  1.000000  1.000000
 FoFCou: FMM=F IPFlag=           0 FMFlag=      100000 FMFlg1=           0
         NFxFlg=           0 DoJE=T BraDBF=F KetDBF=T FulRan=T
         wScrn=  0.000000 ICntrl=       500 IOpCl=  0 I1Cent=   200000004 NGrid=           0
         NMat0=    1 NMatS0=      1 NMatT0=    0 NMatD0=    1 NMtDS0=    0 NMtDT0=    0
 Petite list used in FoFCou.
 Requested convergence on RMS density matrix=1.00D-08 within 128 cycles.
 Requested convergence on MAX density matrix=1.00D-06.
 Requested convergence on             energy=1.00D-06.
 No special actions if energy rises.
 Integral accuracy reduced to 1.0D-05 until final iterations.
 Initial convergence to 1.0D-05 achieved.  Increase integral accuracy.
 SCF Done:  E(RM062X) =  -386.060422214     A.U. after   11 cycles
            NFock= 11  Conv=0.35D-08     -V/T= 2.0049
   1 Symmetry operations used in ECPInt.
 ECPInt:  NShTT=    9730 NPrTT=   29148 LenC2=    9345 LenP2D=   22179.
 LDataN:  DoStor=T MaxTD1= 7 Len=  274
 Calling FoFJK, ICntrl=      2127 FMM=F ISym2X=0 I1Cent= 0 IOpClX= 0 NMat=1 NMatS=1 NMatT=0.
 ***** Axes restored to original set *****
 -------------------------------------------------------------------
 Center     Atomic                   Forces (Hartrees/Bohr)
 Number     Number              X              Y              Z
 -------------------------------------------------------------------
      1        6           0.000353942    0.000463230    0.000004097
      2        8           0.000081874   -0.000141034   -0.000010333
      3        6          -0.000541656    0.000494656    0.000010019
      4        6           0.000033906   -0.000269115   -0.000001763
      5        6           0.000057650   -0.000180271   -0.000001658
      6        6           0.000278080    0.000200625    0.000001730
      7        6          -0.000628364   -0.000144319   -0.000002995
      8        6          -0.000193959   -0.000327118    0.000006274
      9        6           0.000804013   -0.000269068   -0.000000824
     10        1           0.000083439   -0.000268996    0.000000614
     11        1           0.000065491    0.000029031    0.000103218
     12        1           0.000063468    0.000028448   -0.000104921
     13        1           0.000000086   -0.000027846   -0.000000928
     14        1          -0.000147722   -0.000076379    0.000002181
     15        1          -0.000082120    0.000019391    0.000000764
     16        1          -0.000138360    0.000009050   -0.000054011
     17        1          -0.000134540    0.000011801    0.000050096
     18        1          -0.000107394    0.000153901   -0.000000563
     19        1           0.000152167    0.000294013   -0.000000996
 -------------------------------------------------------------------
 Cartesian Forces:  Max     0.000804013 RMS     0.000219454

 GradGradGradGradGradGradGradGradGradGradGradGradGradGradGradGradGradGrad
 Berny optimization.
 Using GEDIIS/GDIIS optimizer.
 FormGI is forming the generalized inverse of G from B-inverse, IUseBI=4.
 Internal  Forces:  Max     0.001135222 RMS     0.000248197
 Search for a local minimum.
 Step number   3 out of a maximum of   95
 All quantities printed in internal units (Hartrees-Bohrs-Radians)
 Mixed Optimization -- En-DIIS/RFO-DIIS
 Swapping is turned off.
 Update second derivatives using D2CorX and points    1    2    3
 DE= -7.39D-05 DEPred=-9.15D-05 R= 8.08D-01
 TightC=F SS=  1.41D+00  RLast= 2.11D-02 DXNew= 5.0454D-01 6.3348D-02
 Trust test= 8.08D-01 RLast= 2.11D-02 DXMaxT set to 3.00D-01
 ITU=  1  1  0
     Eigenvalues ---    0.00775   0.01621   0.01635   0.02148   0.02188
     Eigenvalues ---    0.02201   0.02248   0.02256   0.02275   0.02279
     Eigenvalues ---    0.02283   0.02317   0.07173   0.07198   0.10217
     Eigenvalues ---    0.10673   0.15417   0.16000   0.16000   0.16000
     Eigenvalues ---    0.16000   0.16000   0.16000   0.16000   0.16118
     Eigenvalues ---    0.16255   0.21916   0.22606   0.24036   0.24993
     Eigenvalues ---    0.25000   0.32674   0.34190   0.34215   0.34714
     Eigenvalues ---    0.34874   0.34903   0.35086   0.35564   0.35828
     Eigenvalues ---    0.35906   0.36308   0.38591   0.43373   0.43958
     Eigenvalues ---    0.44161   0.46428   0.47475   0.48321   0.49984
     Eigenvalues ---    0.62103
 En-DIIS/RFO-DIIS/Sim-DIIS IScMMF=       -3 using points:     3    2
 RFO step:  Lambda=-1.23167511D-05.
 DidBck=F Rises=F RFO-DIIS coefs:    0.88844    0.11156
 Iteration  1 RMS(Cart)=  0.00256297 RMS(Int)=  0.00000130
 Iteration  2 RMS(Cart)=  0.00000229 RMS(Int)=  0.00000013
 Iteration  3 RMS(Cart)=  0.00000000 RMS(Int)=  0.00000013
 Variable       Old X    -DE/DX   Delta X   Delta X   Delta X     New X
[...]
 4,-0.04372047,-0.00000145,-0.15592348,-0.01405864,0.00000660,0.7056388
 9,-0.00043829,0.00131900,0.00000022,-0.01610090,-0.00360312,0.00000313
 ,-0.09256750,-0.30707377,0.00001601,-0.03643497,0.72641493,-0.00000064
 ,-0.00000196,-0.00116846,0.00000314,0.00000630,0.00896006,0.00000801,0
 .00001513,-0.06969554,-0.00005009,-0.00002784,0.12687329,-0.00054197,0
 .00095868,-0.00000156,-0.00017861,0.00641334,0.00000361,-0.00749891,-0
 .10186052,0.00000408,-0.33209445,0.01326780,0.00002575,0.68969022,0.00
 189813,-0.00100387,0.00000153,0.00130431,-0.00766643,-0.00000161,-0.04
 006449,0.02807093,0.00000348,-0.06068099,-0.12974905,0.00000581,0.0171
 0933,0.73618146,-0.00000033,0.00000019,0.00049982,0.00000166,-0.000000
 21,0.00694180,0.00000041,0.00002127,0.00273026,0.00002040,-0.00000554,
 -0.05897929,-0.00004777,-0.00004454,0.13816634,0.00053178,-0.00069732,
 0.00000062,-0.00320728,-0.00115170,0.00000216,0.00232278,0.01149425,-0
 .00000797,-0.03909730,0.01805589,0.00000042,-0.21036464,0.14347940,0.0
 0000547,0.67275318,0.00018188,0.00049267,-0.00000157,-0.00563318,0.004
 88871,0.00000517,0.01631297,-0.09042478,-0.00000319,0.07748326,0.05126
 913,-0.00000982,0.06216757,-0.25942621,0.00002031,-0.01667696,0.670757
 04,-0.00000391,0.00000453,0.00029329,0.00001631,0.00000133,-0.00124494
 ,-0.00000790,-0.00000562,-0.00605197,0.00001031,0.00001404,0.00765985,
 -0.00000039,-0.00000857,-0.06823142,0.00003490,0.00000742,0.17092915,-
 0.00006204,-0.00001113,-0.00000030,0.00013216,-0.00019367,-0.00000272,
 -0.00139702,0.00211947,0.00000509,0.00032043,0.00079468,0.00000405,-0.
 02372802,-0.00052022,-0.00000473,-0.22273363,-0.01319206,-0.00004017,0
 .49494859,-0.00022242,0.00031386,0.00000039,0.00133132,0.00051213,-0.0
 0000139,-0.00032853,-0.00119394,0.00000051,0.00169246,-0.00299856,0.00
 001757,0.02505095,0.00603270,0.00001284,-0.01906748,-0.09019417,-0.000
 00902,-0.00381322,0.58961227,0.00000480,-0.00000587,-0.00025738,-0.000
 02138,-0.00000214,-0.00051032,0.00000779,0.00000854,-0.00074250,0.0000
 0577,-0.00001284,0.00801576,0.00002155,0.00000226,0.00434414,0.0000104
 2,0.00000450,-0.06851312,-0.00011513,0.00000401,0.54628926,-0.00079975
 ,-0.00058320,0.00000203,0.00639460,-0.00175881,-0.00000606,-0.04422187
 ,0.07913979,0.00001016,-0.05005885,-0.03316419,0.00000418,0.06847123,-
 0.01249071,-0.00001809,-0.15528903,-0.02658629,-0.00000055,-0.01881956
 ,-0.03393212,0.00001623,0.73032363,0.00187846,-0.00057540,0.00000024,0
 .00376582,-0.00879777,-0.00000233,0.01569968,0.06275232,0.00000143,-0.
 03931443,-0.03042197,0.00000521,0.04672878,-0.06155051,-0.00001227,-0.
 10543965,-0.28354222,0.00000565,-0.00719551,-0.00110533,0.00000111,-0.
 03330804,0.70040552,0.00000123,0.00000025,0.00151237,-0.00000249,0.000
 00019,0.00452495,0.00000781,-0.00001986,0.00364325,0.00001386,0.000009
 01,-0.00570198,-0.00002001,0.00000675,0.00999932,0.00000655,-0.0000239
 1,-0.07053969,0.00000126,-0.00001266,0.00254718,-0.00006279,0.00004228
 ,0.13958267,-0.00083806,-0.00447234,0.00000317,-0.05876738,0.04150169,
 0.00000768,-0.17354440,0.04491839,0.00000425,0.06679634,0.03866292,-0.
 00000289,-0.06601609,0.02867868,0.00001628,-0.01329654,-0.09375599,0.0
 0000857,0.00439352,-0.00093173,0.00000862,-0.36708820,0.00584751,0.000
 02488,0.73247705,-0.00448449,0.00024833,0.00000100,0.00631378,0.013759
 92,-0.00000588,0.12561254,-0.26193790,-0.00001122,-0.01290816,-0.05032
 281,0.00000076,0.02741851,-0.01526611,-0.00000662,-0.03454796,0.027701
 52,-0.00000890,-0.00109218,-0.00573435,0.00001045,-0.06835151,-0.13715
 590,0.00000956,0.04232761,0.72703256,-0.00000133,0.00000172,0.00257295
 ,0.00000416,-0.00000382,0.00690170,0.00001335,-0.00001070,-0.07264303,
 -0.00000385,-0.00000486,0.01099305,0.00000661,-0.00000358,-0.00516914,
 -0.00000295,0.00001027,0.00767713,0.00000791,-0.00001552,0.00478816,0.
 00003044,-0.00000333,-0.05825649,-0.00005689,0.00002534,0.13058397,-0.
 27517593,-0.10313321,-0.00003878,-0.02987531,-0.00120609,-0.00000369,0
 .00153372,0.00380808,-0.00000368,0.00021577,0.00033660,0.,-0.00001912,
 -0.00007189,-0.00000011,0.00001418,-0.00002844,0.00000033,0.00001202,0
 .00002336,-0.00000038,-0.00006427,0.00034188,0.00000022,-0.00110013,-0
 .00047798,-0.00000026,0.30781428,-0.11724456,-0.09863422,-0.00002052,0
 .03853397,0.00742676,0.00000642,0.00187294,-0.00417703,0.00000345,-0.0
 0029057,-0.00131480,-0.00000024,0.00020957,0.00050827,-0.00000029,-0.0
 0013668,0.00022348,-0.00000007,-0.00001447,0.00003848,0.00000022,-0.00
 016631,-0.00049943,-0.00000020,0.00151143,0.00048589,-0.00000010,0.105
 37687,0.10637121,-0.00003535,-0.00001736,-0.05194628,-0.00001682,-0.00
 000141,0.00049565,0.00000114,0.00000155,0.00047284,0.00000073,0.000000
 26,0.00043896,-0.00000046,0.,0.00019462,0.00000004,-0.00000046,-0.0000
 3557,0.00000007,-0.00000008,-0.00003934,0.00000039,0.00000049,-0.00002
 311,-0.00000101,0.00000001,0.00030133,0.00004661,0.00001685,0.04734277
 ,-0.05819121,-0.02487324,-0.03602873,-0.00389891,0.02183177,0.02050349
 ,0.00563794,0.00136039,0.00182823,0.00057014,-0.00109050,0.00005847,-0
 .00107470,0.00033403,-0.00054693,0.00009675,-0.00111542,-0.00006876,0.
 00003176,-0.00002104,0.00011698,0.00094492,0.00065420,-0.00020766,-0.0
 0151397,0.00060472,-0.00055932,-0.00164233,-0.01462562,-0.02460135,0.0
 5943878,-0.02115252,-0.12226802,-0.11148497,0.01090477,-0.02768594,-0.
 02193266,-0.00565301,-0.00047785,-0.00017121,0.00037819,0.00047477,0.0
 0041493,0.00012447,0.00001532,-0.00000292,0.00015967,0.00026145,-0.000
 05612,-0.00001203,-0.00004656,-0.00000314,-0.00028403,0.00001295,0.000
 20144,0.00102953,-0.00035411,0.00032953,-0.00247912,-0.00559963,-0.010
 97416,0.01569795,0.14379954,-0.03146991,-0.11442470,-0.22959650,0.0057
 7867,-0.00235343,0.00731983,-0.00169192,-0.00034291,0.00057174,0.00021
 868,-0.00119762,-0.00011224,-0.00013247,0.00048193,-0.00004645,-0.0000
 1099,-0.00001171,-0.00006653,-0.00000630,0.00000894,0.00002395,-0.0001
 0824,0.00010784,-0.00000863,0.00041074,0.00005165,-0.00021731,-0.00015
 157,0.00182362,0.00161653,0.03236029,0.12932128,0.24149979,-0.05822941
 ,-0.02492071,0.03614175,-0.00388949,0.02181975,-0.02051586,0.00564013,
 0.00135909,-0.00183104,0.00057015,-0.00109045,-0.00005779,-0.00107562,
 0.00033463,0.00054740,0.00009699,-0.00111618,0.00006859,0.00003163,-0.
 00002123,-0.00011670,0.00094568,0.00065455,0.00020710,-0.00151364,0.00
 060551,0.00055949,-0.00165529,-0.01461188,0.02460564,0.00121438,0.0015
 3930,-0.00531449,0.05947713,-0.02119677,-0.12216460,0.11142478,0.01088
 854,-0.02767523,0.02195698,-0.00565302,-0.00047568,0.00017053,0.000377
 30,0.00047518,-0.00041487,0.00012481,0.00001487,0.00000263,0.00015972,
 0.00026177,0.00005445,-0.00001201,-0.00004678,0.00000510,-0.00028430,0
 .00001290,-0.00020100,0.00102877,-0.00035446,-0.00033007,-0.00248430,-
 0.00559486,0.01097444,0.00155006,0.01144184,-0.01425172,0.01575437,0.1
 4367964,0.03157877,0.11436438,-0.22967426,-0.00578753,0.00238237,0.007
 29100,0.00169701,0.00034367,0.00057206,-0.00021824,0.00119608,-0.00011
 195,0.00013184,-0.00048152,-0.00004582,0.00001065,0.00001086,-0.000065
 70,0.00000639,-0.00000876,0.00002249,0.00010902,-0.00010755,-0.0000086
 0,-0.00041249,-0.00005109,-0.00021691,0.00015090,-0.00182913,0.0016274
 2,0.00532638,0.01423735,-0.02090100,-0.03247470,-0.12926940,0.24159507
 ,-0.00328728,-0.00224144,-0.00000043,-0.00069362,0.00212342,-0.0000010
 4,0.01222405,-0.00847535,0.00000019,-0.15461878,0.13668727,0.00000127,
 -0.01344728,0.02681050,-0.00000026,-0.00483698,-0.00199998,-0.00000060
 ,-0.00028076,0.00114766,0.00000145,-0.00070686,-0.00110483,0.00000022,
 -0.00031069,-0.00274514,0.00000032,0.00017618,-0.00056931,0.00000046,-
 0.00166739,-0.00040928,0.00006019,-0.00166656,-0.00040916,-0.00006066,
 0.16817103,0.00085076,-0.00074055,0.00000053,0.00035740,0.00163219,-0.
 00000068,0.02062269,-0.01670010,0.00000025,0.13525471,-0.25073861,0.00
 000352,-0.00351630,0.00680114,-0.00000013,-0.00158175,0.00193571,0.000
 00007,-0.00018298,0.00014069,0.00000017,-0.00139570,-0.00018749,0.0000
 0031,-0.00343092,-0.00443040,0.00000071,0.00000333,0.00077206,-0.00000
 020,-0.00025717,0.00025880,0.00068373,-0.00025682,0.00025806,-0.000683
 99,-0.14786776,0.26124008,-0.00000018,-0.00000051,-0.00048211,0.000000
 48,-0.00000025,-0.00305931,-0.00000372,0.00000034,0.00429897,0.0000020
 0,0.00000663,-0.03301400,0.00000020,-0.00000167,0.00172572,0.00000410,
 -0.00000122,0.00671973,-0.00000190,-0.00000073,0.00047222,0.00000071,0
 .00000013,-0.00035401,0.00000038,0.00000070,0.00528475,0.00000028,0.00
 000002,-0.00044337,0.00156912,0.00031094,-0.00009936,-0.00156947,-0.00
 031142,-0.00010047,-0.00000037,-0.00000380,0.02384473,0.00050064,-0.00
 047604,0.00000018,-0.00125687,-0.00169967,0.00000062,-0.00512978,0.000
 75608,0.00000072,-0.00790635,-0.02951840,0.00000091,-0.09807442,-0.097
 53487,0.00001917,0.00939475,0.01664683,-0.00000010,0.00155525,0.001557
 05,-0.00000499,-0.00160806,0.00380947,0.00000129,-0.00110293,0.0005635
 1,-0.00000014,-0.00005038,0.00005877,-0.00000003,-0.00001101,0.0000620
 0,0.00004451,-0.00001099,0.00006196,-0.00004453,0.00105772,0.00029357,
 -0.00000036,0.10242875,0.00015261,-0.00021948,0.00000003,-0.00035641,-
 0.00012564,0.00000020,0.00011178,0.00236818,0.00000064,0.00056049,-0.0
 0008291,-0.00000063,-0.09669959,-0.29891143,0.00003431,-0.01231076,-0.
 01932880,0.00000479,-0.00175360,0.00061854,0.00000549,0.00417633,-0.00
 286381,0.00000086,0.00092392,0.00045280,-0.00000010,-0.00002042,-0.000
 00516,0.00000001,0.00001200,0.00003393,-0.00000030,0.00001199,0.000033
 91,0.00000029,-0.00031561,0.00077284,-0.00000054,0.10492474,0.31728516
 ,-0.00000009,0.00000010,-0.00009527,0.00000044,0.00000001,0.00006172,0
 .00000093,0.00000055,0.00720197,0.00000017,0.00000299,0.00262923,0.000
 01631,0.00003975,-0.03725893,0.00001062,-0.00000051,0.00468587,-0.0000
 0543,-0.00001354,-0.00476190,-0.00000023,-0.00000264,0.00633762,0.0000
 0049,-0.00000015,-0.00076739,0.00000003,-0.00000002,0.00003252,0.00006
 395,0.00000830,0.00001338,-0.00006395,-0.00000829,0.00001339,-0.000000
 28,-0.00000038,-0.00384470,-0.00001963,-0.00003768,0.02592307,0.000076
 76,-0.00010996,0.00000038,-0.00027432,0.00012814,-0.00000045,0.0002601
 8,0.00040890,0.00000187,-0.00034288,-0.00007548,-0.00000153,0.00221513
 ,-0.00211117,-0.00000635,-0.00791047,-0.03292152,0.00013812,-0.0622688
 1,-0.06021295,0.00028735,-0.00686346,0.00071251,0.00000661,0.00029717,
 -0.00174076,-0.00000817,-0.00000969,0.00001024,0.00000002,0.00000347,0
 .00001833,0.00001702,0.00000360,0.00001827,-0.00001706,0.00002640,0.00
 000760,-0.00000046,-0.00031988,0.00114751,0.00000273,0.07031335,0.0000
 7867,-0.00012634,0.00000003,-0.00033122,0.00007083,0.00000168,0.000274
 98,0.00031519,-0.00000185,-0.00044043,0.00021778,-0.00000691,0.0023129
 0,0.00062904,-0.00000559,0.00002358,-0.00306497,-0.00000463,-0.0646619
 2,-0.30546779,0.00112643,-0.00093580,0.00060271,0.00000848,0.00035069,
 -0.00012067,0.00000073,-0.00001823,0.00000232,0.,0.00000370,0.00001961
 ,0.00000632,0.00000378,0.00001963,-0.00000639,-0.00004805,-0.00001151,
 0.00000072,-0.00029129,0.00056953,0.00000671,0.06909323,0.33000714,-0.
 00000090,0.00000124,0.00000390,0.00000367,0.00000062,0.00001229,-0.000
 00079,-0.00000925,0.00002695,0.00000529,0.00000277,-0.00021766,-0.0000
 0701,0.00000278,0.00008510,-0.00002379,-0.00003780,-0.00181607,0.00031
 150,0.00114123,-0.04663302,-0.00000153,-0.00000092,0.00128523,-0.00001
 045,0.00000046,0.00042157,0.00000009,0.,0.00000127,-0.00000102,-0.0000
 0127,-0.00000237,0.00000078,0.00000093,-0.00000213,0.00000029,0.000000
 13,-0.00005702,0.00000360,-0.00000330,0.00029197,-0.00029940,-0.001249
 36,0.04509778,0.00023554,-0.00028822,-0.00006691,-0.00112429,-0.000152
 65,-0.00004682,0.00075631,0.00034693,-0.00019824,-0.00080719,0.0001361
 8,0.00148935,-0.00255879,-0.00204927,-0.00046147,-0.01672839,0.0146202
 4,-0.02580933,-0.08641820,0.04430304,-0.08811974,0.00149297,0.00158307
 ,0.00068621,-0.00061083,0.00035228,0.00089201,-0.00003158,-0.00000450,
 -0.00000815,0.00002935,0.00005550,0.00001901,-0.00001855,0.00005052,-0
 .00000471,-0.00027895,-0.00000889,0.00012331,-0.00003661,0.00006367,-0
 .00065949,0.00264317,-0.00271189,0.00730082,0.09819867,0.00005182,-0.0
 0007986,0.00002053,-0.00023368,-0.00010086,0.00014298,-0.00018282,0.00
 114596,-0.00023526,-0.00058238,-0.00050794,-0.00019808,0.00125085,-0.0
 0031714,-0.00005714,-0.00079516,0.00194364,-0.00448419,0.04371040,-0.0
 9497232,0.09234826,-0.00171094,-0.00001169,-0.00004870,0.00122904,-0.0
 0017754,-0.00013792,-0.00000144,0.00000052,-0.00000256,0.00001293,0.00
 000805,0.00000890,0.00001694,0.00000866,-0.00001568,-0.00000103,-0.000
 02133,0.00008094,-0.00004902,0.00027872,0.00035579,0.01283866,-0.01188
 076,0.02615243,-0.04916470,0.09847938,0.00006710,-0.00005435,-0.000012
 89,-0.00027377,-0.00002347,-0.00001103,0.00036916,-0.00028552,-0.00000
 077,0.00021413,-0.00002628,-0.00028587,0.00035717,-0.00039874,-0.00017
 272,0.00066703,-0.00181867,0.00319228,-0.08714499,0.09291387,-0.222520
 04,0.00037355,0.00058037,0.00095141,-0.00054910,-0.00003577,0.00016132
 ,-0.00000812,-0.00000034,0.00000184,-0.00000479,0.00001148,0.00000380,
 -0.00000237,0.00001306,-0.00000297,0.00000133,-0.00000380,0.00001151,0
 .00003884,-0.00003784,0.00010985,0.00138639,-0.00076396,0.00085310,0.0
 9507617,-0.10188188,0.23982954,0.00023319,-0.00028539,0.00006654,-0.00
 111437,-0.00015316,0.00004657,0.00075148,0.00034443,0.00019810,-0.0008
 0348,0.00015334,-0.00148298,-0.00261203,-0.00206017,0.00047346,-0.0167
 3766,0.01488025,0.02565356,-0.08673169,0.04526271,0.08789838,0.0015095
 6,0.00159103,-0.00069128,-0.00060461,0.00034833,-0.00088281,-0.0000313
 5,-0.00000473,0.00000813,-0.00001849,0.00005002,0.00000431,0.00002926,
 0.00005499,-0.00001858,-0.00028192,-0.00000959,-0.00012384,-0.00003595
 ,0.00006096,0.00065423,0.00265737,-0.00278220,-0.00728005,0.00505178,-
 0.00655104,-0.01025972,0.09853112,0.00005117,-0.00007942,-0.00002106,-
 0.00023224,-0.00009932,-0.00014374,-0.00018307,0.00113140,0.00023679,-
 0.00057039,-0.00049733,0.00019151,0.00122724,-0.00031208,0.00004475,-0
 .00079641,0.00196917,0.00448973,0.04469624,-0.09676907,-0.09348531,-0.
 00170753,-0.00000130,0.00005881,0.00122012,-0.00016903,0.00015082,-0.0
 0000136,0.00000064,0.00000262,0.00001674,0.00000852,0.00001575,0.00001
 272,0.00000800,-0.00000897,-0.00000113,-0.00002118,-0.00008067,-0.0000
 5257,0.00028368,-0.00035133,0.01286971,-0.01210563,-0.02600299,-0.0064
 7530,0.00645000,0.01209816,-0.05023670,0.10044376,-0.00006779,0.000055
 24,-0.00001282,0.00027761,0.00002369,-0.00001008,-0.00036911,0.0002911
 8,-0.00000120,-0.00022877,0.00002366,-0.00028634,-0.00035705,0.0003939
 8,-0.00017150,-0.00072166,0.00184703,0.00315560,0.08699607,-0.09404971
 ,-0.22052779,-0.00037724,-0.00057944,0.00095275,0.00054758,0.00003449,
 0.00015934,0.00000812,0.00000027,0.00000184,0.00000244,-0.00001321,-0.
 00000315,0.00000485,-0.00001164,0.00000399,-0.00000202,0.00000384,0.00
 001118,-0.00003948,0.00003430,0.00011347,-0.00150885,0.00088836,0.0010
 8106,0.01036389,-0.01236915,-0.02172453,-0.09483822,0.10313618,0.23763
 869,-0.00014299,-0.00044938,0.00000057,-0.00138371,0.00168469,-0.00000
 006,-0.00404408,-0.00248155,0.00000122,-0.00072608,-0.00075677,-0.0000
 0014,0.00008257,-0.00306001,0.00000158,0.01018984,-0.00979636,0.000001
 31,0.00097871,-0.00043452,-0.00000285,-0.15817585,0.13236608,0.0000285
 0,-0.01433627,0.02680265,0.00000176,-0.00011533,0.00012033,-0.00000006
 ,-0.00000345,0.00005715,0.00002471,-0.00000330,0.00005707,-0.00002476,
 0.00001915,0.00009288,-0.00000014,0.00055964,-0.00059456,-0.00000078,-
 0.00004146,0.00016496,-0.00000065,0.00021208,0.00013710,-0.00026834,0.
 00021335,0.00013774,0.00027010,0.16565353,-0.00018667,0.00009777,-0.00
 000001,0.00024136,0.00020508,-0.00000013,-0.00188183,0.00147690,-0.000
 00068,-0.00107571,0.00014822,-0.00000002,-0.00350447,-0.00451457,-0.00
 000074,0.01984513,-0.01801939,-0.00000450,0.00122384,0.00132368,-0.000
 00720,0.13289238,-0.23842664,-0.00003194,-0.00403626,0.00650041,0.0000
 0111,-0.00000582,0.00001840,0.,0.00000993,-0.00002438,0.00000259,0.000
 00994,-0.00002439,-0.00000256,0.00010018,-0.00000711,0.00000018,0.0009
 5567,-0.00111221,0.00000027,-0.00004003,0.00032597,0.00000235,-0.00062
 389,-0.00022910,-0.00028843,-0.00063134,-0.00022477,0.00029315,-0.1436
 7808,0.25180253,0.00000010,0.,-0.00023677,0.00000033,-0.00000027,0.000
 16566,0.00000133,-0.00000051,0.00846658,0.00000068,0.00000071,-0.00055
 839,-0.00000108,0.00000193,0.00592048,0.00001047,0.00000167,0.00415646
 ,-0.00000849,0.00001109,-0.00227866,0.00002746,-0.00003768,-0.03885422
 ,0.00000070,-0.00000321,0.00338549,0.00000007,-0.00000003,-0.00004681,
 0.00004701,-0.00003715,0.00000535,-0.00004696,0.00003715,0.00000532,-0
 .00000004,-0.00000011,-0.00094940,-0.00000059,-0.00000040,0.00012386,0
 .00000249,-0.00000058,-0.00028606,-0.00056894,0.00027755,-0.00036305,0
 .00056724,-0.00028661,-0.00035940,-0.00003134,0.00003604,0.02631581,-0
 .00006544,0.00006119,-0.00000020,0.00140136,-0.00083921,-0.00000037,0.
 01096547,0.01737529,0.00000085,-0.00193608,0.00314275,0.00000052,-0.00
 117450,0.00069479,0.00000023,-0.00519835,0.00052937,-0.00000029,0.0000
 3565,-0.00138330,0.00000185,-0.00638683,-0.02927059,-0.00000152,-0.103
 32032,-0.10460127,-0.00000033,0.00000454,-0.00002549,0.,0.00005398,-0.
 00008690,-0.00005223,0.00005388,-0.00008682,0.00005229,0.00040254,0.00
 102495,-0.00000016,0.00004646,-0.00009505,-0.00000004,-0.00046561,-0.0
 0008546,-0.00000044,-0.00000650,0.00002446,-0.00003968,-0.00000555,0.0
 0002502,0.00003954,0.00106364,0.00038565,-0.00000043,0.10453166,0.0003
 7638,0.00008425,0.00000040,-0.00123649,0.00189661,0.00000013,-0.014065
 56,-0.01910726,-0.00000076,0.00395234,-0.00300817,-0.00000038,0.001216
 08,0.00046365,-0.00000030,-0.00001581,0.00229624,-0.00000039,0.0001103
 8,-0.00006347,-0.00000003,0.00045099,0.00135303,0.00000034,-0.10260306
 ,-0.30015816,-0.00001023,0.00003818,-0.00002290,0.,-0.00010545,0.00012
 172,0.00006986,-0.00010532,0.00012152,-0.00006997,-0.00068097,-0.00095
 332,0.00000019,-0.00006780,-0.00004789,0.00000007,-0.00004123,-0.00000
 209,-0.00000006,-0.00003212,-0.00001639,0.00000211,-0.00003175,-0.0000
 1607,-0.00000222,-0.00036939,0.00068359,0.00000042,0.11321059,0.316375
 11,-0.00000049,0.00000023,-0.00060644,0.00000104,0.00000014,-0.0033917
 0,-0.00000214,-0.00000191,0.00558639,0.00000019,-0.00000051,0.00456152
 ,0.00000068,0.00000004,-0.00053233,0.00000391,0.00000163,0.00809564,-0
 .00000216,0.00000096,0.00028093,0.00000056,0.00000142,0.00240996,-0.00
 000050,-0.00001158,-0.03596048,-0.00000005,0.00000011,0.00000688,0.000
 14220,-0.00015845,-0.00000085,-0.00014226,0.00015835,-0.00000093,-0.00
 000004,-0.00000017,0.00003493,0.,-0.00000014,-0.00080973,-0.00000072,-
 0.00000019,-0.00014589,-0.00000696,0.00004318,-0.00002077,0.00000695,-
 0.00004444,-0.00002110,-0.00000064,0.00000053,-0.00461228,0.00000040,0
 .00001079,0.02512624\\0.00012020,-0.00011757,-0.00000379,-0.00017494,0
 .00007161,0.00000554,0.00019193,-0.00014150,-0.00000169,0.00009527,0.0
 0012448,0.00000048,-0.00011525,0.00006921,0.00000305,-0.00007550,-0.00
 018679,-0.00000128,0.00007280,0.00000355,0.,0.00015342,0.00015230,-0.0
 0000052,-0.00020144,0.00004945,-0.00000099,0.00002996,-0.00001042,-0.0
 0000067,-0.00003293,0.00002060,0.00000805,-0.00003223,0.00002113,-0.00
 000692,0.00000683,-0.00001651,-0.00000020,0.00001860,0.00000785,-0.000
 00104,-0.00003431,0.00001311,-0.00000118,-0.00002371,-0.00000142,0.000
 01275,-0.00002316,-0.00000417,-0.00001085,0.00000461,-0.00003467,-0.00
 000049,0.00001986,-0.00002024,-0.00000024\\\@
 The archive entry for this job was punched.


 PERICLES, SOPHOCLES,
 PELOPONESIAN WAR,
 FRENCH VERBS, LATIN VERBS
 H2SO4.
 Job cpu time:       0 days  1 hours 25 minutes 45.9 seconds.
 Elapsed time:       0 days  0 hours 10 minutes 49.4 seconds.
 File lengths (MBytes):  RWF=    236 Int=      0 D2E=      0 Chk=     11 Scr=      2
 Normal termination of Gaussian 16 at Mon Jun 20 16:34:18 2022.
