 Entering Gaussian System, Link 0=/opt/apps/Gaussian/G16C/g16/g16
 Input=/home/svss/projects/Project-Philicity/GS/hydrocarbon/set-1/GS/mol_12_hc/mol_12_hc.com
 Output=/home/svss/projects/Project-Philicity/GS/hydrocarbon/set-1/GS/mol_12_hc/mol_12_hc.log
 Initial command:
 /opt/apps/Gaussian/G16C/g16/l1.exe "/home/svss/projects/Project-Philicity/GS/hydrocarbon/set-1/Gau-152187.inp" -scrdir="/home/svss/projects/Project-Philicity/GS/hydrocarbon/set-1/"
 Entering Link 1 = /opt/apps/Gaussian/G16C/g16/l1.exe PID=    152188.
  
 Copyright (c) 1988-2019, Gaussian, Inc.  All Rights Reserved.
  
 This is part of the Gaussian(R) 16 program.  It is based on
 the Gaussian(R) 09 system (copyright 2009, Gaussian, Inc.),
 the Gaussian(R) 03 system (copyright 2003, Gaussian, Inc.),
 the Gaussian(R) 98 system (copyright 1998, Gaussian, Inc.),
 the Gaussian(R) 94 system (copyright 1995, Gaussian, Inc.),
 the Gaussian 92(TM) system (copyright 1992, Gaussian, Inc.),
 the Gaussian 90(TM) system (copyright 1990, Gaussian, Inc.),
 the Gaussian 88(TM) system (copyright 1988, Gaussian, Inc.),
 the Gaussian 86(TM) system (copyright 1986, Carnegie Mellon
 University), and the Gaussian 82(TM) system (copyright 1983,
 Carnegie Mellon University). Gaussian is a federally registered
 trademark of Gaussian, Inc.
  
 This software contains proprietary and confidential information,
 including trade secrets, belonging to Gaussian, Inc.
  
 This software is provided under written license and may be
 used, copied, transmitted, or stored only in accord with that
 written license.
  
 The following legend is applicable only to US Government
 contracts under FAR:
  
                    RESTRICTED RIGHTS LEGEND
  
 Use, reproduction and disclosure by the US Government is
 subject to restrictions as set forth in subparagraphs (a)
 and (c) of the Commercial Computer Software - Restricted
 Rights clause in FAR 52.227-19.
  
 Gaussian, Inc.
 340 Quinnipiac St., Bldg. 40, Wallingford CT 06492
  
  
 ---------------------------------------------------------------
 Warning -- This program may not be used in any manner that
 competes with the business of Gaussian, Inc. or will provide
 assistance to any competitor of Gaussian, Inc.  The licensee
 of this program is prohibited from giving any competitor of
 Gaussian, Inc. access to this program.  By using this program,
 the user acknowledges that Gaussian, Inc. is engaged in the
 business of creating and licensing software in the field of
 computational chemistry and represents and warrants to the
 licensee that it is not a competitor of Gaussian, Inc. and that
 it will not use this program in any manner prohibited above.
 ---------------------------------------------------------------
  

 Cite this work as:
 Gaussian 16, Revision C.01,
 M. J. Frisch, G. W. Trucks, H. B. Schlegel, G. E. Scuseria, 
 M. A. Robb, J. R. Cheeseman, G. Scalmani, V. Barone, 
 G. A. Petersson, H. Nakatsuji, X. Li, M. Caricato, A. V. Marenich, 
 J. Bloino, B. G. Janesko, R. Gomperts, B. Mennucci, H. P. Hratchian, 
 J. V. Ortiz, A. F. Izmaylov, J. L. Sonnenberg, D. Williams-Young, 
 F. Ding, F. Lipparini, F. Egidi, J. Goings, B. Peng, A. Petrone, 
 T. Henderson, D. Ranasinghe, V. G. Zakrzewski, J. Gao, N. Rega, 
 G. Zheng, W. Liang, M. Hada, M. Ehara, K. Toyota, R. Fukuda, 
 J. Hasegawa, M. Ishida, T. Nakajima, Y. Honda, O. Kitao, H. Nakai, 
 T. Vreven, K. Throssell, J. A. Montgomery, Jr., J. E. Peralta, 
 F. Ogliaro, M. J. Bearpark, J. J. Heyd, E. N. Brothers, K. N. Kudin, 
 V. N. Staroverov, T. A. Keith, R. Kobayashi, J. Normand, 
 K. Raghavachari, A. P. Rendell, J. C. Burant, S. S. Iyengar, 
 J. Tomasi, M. Cossi, J. M. Millam, M. Klene, C. Adamo, R. Cammi, 
 J. W. Ochterski, R. L. Martin, K. Morokuma, O. Farkas, 
 J. B. Foresman, and D. J. Fox, Gaussian, Inc., Wallingford CT, 2019.
 
 ******************************************
 Gaussian 16:  AS64L-G16RevC.01  3-Jul-2019
                20-Jun-2022 
 ******************************************
 %nproc=8
 Will use up to    8 processors via shared memory.
 %mem=96GB
 %chk=/home/svss/projects/Project-Philicity/GS/hydrocarbon/set-1/GS/mol_12_hc/mol
 _12_hc.chk
 -------------------------
 # opt freq M062X/def2tzvp
 -------------------------
 1/18=20,19=15,26=3,38=1/1,3;
 2/9=110,12=2,17=6,18=5,40=1/2;
 3/5=44,7=101,11=2,25=1,30=1,71=1,74=-55/1,2,3;
 4//1;
 5/5=2,38=5/2;
 6/7=2,8=2,9=2,10=2,28=1/1;
 7//1,2,3,16;
 1/18=20,19=15,26=3/3(2);
 2/9=110/2;
 99//99;
 2/9=110/2;
 3/5=44,7=101,11=2,25=1,30=1,71=1,74=-55/1,2,3;
 4/5=5,16=3,69=1/1;
 5/5=2,38=5/2;
 7//1,2,3,16;
 1/18=20,19=15,26=3/3(-5);
 2/9=110/2;
 6/7=2,8=2,9=2,10=2,19=2,28=1/1;
 99/9=1/99;
 ----------------------------------------------------------------------
 converted from /home/svss/projects/Project-Philicity/GS/hydrocarbon/se
 t-1/GS/mol_12_hc/mol_12_hc_cregen_best.xyz
 ----------------------------------------------------------------------
 Symbolic Z-matrix:
 Charge =  0 Multiplicity = 1
 C                    -2.43937  -0.00006  -0.00631 
 C                    -0.94044  -0.00028   0.00898 
 C                    -0.23148   1.19447   0.00496 
 C                     1.15196   1.19646  -0.00165 
 C                     1.84851   0.00022  -0.00455 
 C                     1.1524   -1.1962   -0.00164 
 C                    -0.23112  -1.19471   0.00495 
 H                    -2.83287   0.87982   0.49776 
 H                    -2.80076   0.01177  -1.03536 
 H                    -2.83314  -0.89077   0.47795 
 H                    -0.76978   2.13202   0.00843 
 H                     1.68818   2.13454  -0.00293 
 H                     2.92863   0.00044  -0.0078 
 H                     1.68888  -2.13414  -0.00292 
 H                    -0.76894  -2.13253   0.00842 
 

 GradGradGradGradGradGradGradGradGradGradGradGradGradGradGradGradGradGrad
 Berny optimization.
 Initialization pass.
                           ----------------------------
                           !    Initial Parameters    !
                           ! (Angstroms and Degrees)  !
 --------------------------                            --------------------------
 ! Name  Definition              Value          Derivative Info.                !
 --------------------------------------------------------------------------------
 ! R1    R(1,2)                  1.499          estimate D2E/DX2                !
 ! R2    R(1,8)                  1.0877         estimate D2E/DX2                !
 ! R3    R(1,9)                  1.0907         estimate D2E/DX2                !
 ! R4    R(1,10)                 1.0876         estimate D2E/DX2                !
 ! R5    R(2,3)                  1.3893         estimate D2E/DX2                !
 ! R6    R(2,7)                  1.3892         estimate D2E/DX2                !
 ! R7    R(3,4)                  1.3835         estimate D2E/DX2                !
 ! R8    R(3,11)                 1.0811         estimate D2E/DX2                !
 ! R9    R(4,5)                  1.3843         estimate D2E/DX2                !
 ! R10   R(4,12)                 1.0805         estimate D2E/DX2                !
 ! R11   R(5,6)                  1.3842         estimate D2E/DX2                !
 ! R12   R(5,13)                 1.0801         estimate D2E/DX2                !
 ! R13   R(6,7)                  1.3835         estimate D2E/DX2                !
 ! R14   R(6,14)                 1.0805         estimate D2E/DX2                !
 ! R15   R(7,15)                 1.0811         estimate D2E/DX2                !
 ! A1    A(2,1,8)              110.9247         estimate D2E/DX2                !
 ! A2    A(2,1,9)              109.934          estimate D2E/DX2                !
 ! A3    A(2,1,10)             110.9385         estimate D2E/DX2                !
 ! A4    A(8,1,9)              107.9736         estimate D2E/DX2                !
 ! A5    A(8,1,10)             108.9751         estimate D2E/DX2                !
 ! A6    A(9,1,10)             107.9986         estimate D2E/DX2                !
 ! A7    A(1,2,3)              120.6724         estimate D2E/DX2                !
 ! A8    A(1,2,7)              120.7088         estimate D2E/DX2                !
 ! A9    A(3,2,7)              118.6102         estimate D2E/DX2                !
 ! A10   A(2,3,4)              120.7675         estimate D2E/DX2                !
 ! A11   A(2,3,11)             119.4518         estimate D2E/DX2                !
 ! A12   A(4,3,11)             119.7806         estimate D2E/DX2                !
 ! A13   A(3,4,5)              120.1293         estimate D2E/DX2                !
 ! A14   A(3,4,12)             119.8353         estimate D2E/DX2                !
 ! A15   A(5,4,12)             120.0353         estimate D2E/DX2                !
 ! A16   A(4,5,6)              119.596          estimate D2E/DX2                !
 ! A17   A(4,5,13)             120.2            estimate D2E/DX2                !
 ! A18   A(6,5,13)             120.2039         estimate D2E/DX2                !
 ! A19   A(5,6,7)              120.1305         estimate D2E/DX2                !
 ! A20   A(5,6,14)             120.0392         estimate D2E/DX2                !
 ! A21   A(7,6,14)             119.8302         estimate D2E/DX2                !
 ! A22   A(2,7,6)              120.7663         estimate D2E/DX2                !
 ! A23   A(2,7,15)             119.4615         estimate D2E/DX2                !
 ! A24   A(6,7,15)             119.7721         estimate D2E/DX2                !
 ! D1    D(8,1,2,3)            -30.544          estimate D2E/DX2                !
 ! D2    D(8,1,2,7)            150.5359         estimate D2E/DX2                !
 ! D3    D(9,1,2,3)             88.8025         estimate D2E/DX2                !
 ! D4    D(9,1,2,7)            -90.1176         estimate D2E/DX2                !
 ! D5    D(10,1,2,3)          -151.8113         estimate D2E/DX2                !
 ! D6    D(10,1,2,7)            29.2686         estimate D2E/DX2                !
 ! D7    D(1,2,3,4)           -179.0023         estimate D2E/DX2                !
 ! D8    D(1,2,3,11)             1.0827         estimate D2E/DX2                !
 ! D9    D(7,2,3,4)             -0.0599         estimate D2E/DX2                !
 ! D10   D(7,2,3,11)          -179.975          estimate D2E/DX2                !
 ! D11   D(1,2,7,6)            179.0029         estimate D2E/DX2                !
 ! D12   D(1,2,7,15)            -1.0836         estimate D2E/DX2                !
 ! D13   D(3,2,7,6)              0.0609         estimate D2E/DX2                !
 ! D14   D(3,2,7,15)           179.9744         estimate D2E/DX2                !
 ! D15   D(2,3,4,5)              0.0099         estimate D2E/DX2                !
 ! D16   D(2,3,4,12)          -179.8913         estimate D2E/DX2                !
 ! D17   D(11,3,4,5)           179.9247         estimate D2E/DX2                !
 ! D18   D(11,3,4,12)            0.0235         estimate D2E/DX2                !
 ! D19   D(3,4,5,6)              0.0401         estimate D2E/DX2                !
 ! D20   D(3,4,5,13)          -179.8828         estimate D2E/DX2                !
 ! D21   D(12,4,5,6)           179.9411         estimate D2E/DX2                !
 ! D22   D(12,4,5,13)            0.0182         estimate D2E/DX2                !
 ! D23   D(4,5,6,7)             -0.0392         estimate D2E/DX2                !
 ! D24   D(4,5,6,14)          -179.9416         estimate D2E/DX2                !
 ! D25   D(13,5,6,7)           179.8837         estimate D2E/DX2                !
 ! D26   D(13,5,6,14)           -0.0187         estimate D2E/DX2                !
 ! D27   D(5,6,7,2)             -0.0118         estimate D2E/DX2                !
 ! D28   D(5,6,7,15)          -179.9251         estimate D2E/DX2                !
 ! D29   D(14,6,7,2)           179.8908         estimate D2E/DX2                !
 ! D30   D(14,6,7,15)           -0.0225         estimate D2E/DX2                !
 --------------------------------------------------------------------------------
 Trust Radius=3.00D-01 FncErr=1.00D-07 GrdErr=1.00D-06 EigMax=2.50D+02 EigMin=1.00D-04
 Number of steps in this run=     79 maximum allowed number of steps=    100.
 GradGradGradGradGradGradGradGradGradGradGradGradGradGradGradGradGradGrad

                          Input orientation:                          
 ---------------------------------------------------------------------
 Center     Atomic      Atomic             Coordinates (Angstroms)
 Number     Number       Type             X           Y           Z
 ---------------------------------------------------------------------
      1          6           0       -2.439370   -0.000060   -0.006310
      2          6           0       -0.940440   -0.000280    0.008980
      3          6           0       -0.231480    1.194470    0.004960
      4          6           0        1.151960    1.196460   -0.001650
      5          6           0        1.848510    0.000220   -0.004550
      6          6           0        1.152400   -1.196200   -0.001640
      7          6           0       -0.231120   -1.194710    0.004950
      8          1           0       -2.832870    0.879820    0.497760
      9          1           0       -2.800760    0.011770   -1.035360
     10          1           0       -2.833140   -0.890770    0.477950
     11          1           0       -0.769780    2.132020    0.008430
     12          1           0        1.688180    2.134540   -0.002930
     13          1           0        2.928630    0.000440   -0.007800
     14          1           0        1.688880   -2.134140   -0.002920
     15          1           0       -0.768940   -2.132530    0.008420
 ---------------------------------------------------------------------
                    Distance matrix (angstroms):
                    1          2          3          4          5
     1  C    0.000000
     2  C    1.499008   0.000000
     3  C    2.510340   1.389269   0.000000
     4  C    3.785411   2.410485   1.383457   0.000000
     5  C    4.287880   2.788983   2.398475   1.384262   0.000000
     6  C    3.785708   2.410460   2.762331   2.392660   1.384196
     7  C    2.510714   1.389178   2.389180   2.762363   2.398501
     8  H    1.087712   2.143542   2.666287   4.028466   4.789711
     9  H    1.090728   2.133444   3.013676   4.253944   4.762186
    10  H    1.087624   2.143646   3.367578   4.524110   4.790043
    11  H    2.708046   2.139119   1.081101   2.137395   3.376416
    12  H    4.646848   3.386332   2.137496   1.080522   2.140334
    13  H    5.368000   3.869106   3.378190   2.141742   1.080125
    14  H    4.647231   3.386270   3.842849   3.373601   2.140322
    15  H    2.708871   2.139136   3.370134   3.843453   3.376364
                    6          7          8          9         10
     6  C    0.000000
     7  C    1.383536   0.000000
     8  H    4.521243   3.363873   0.000000
     9  H    4.260897   3.023390   1.762101   0.000000
    10  H    4.025894   2.662070   1.770701   1.762309   0.000000
    11  H    3.843426   3.370059   2.462476   3.116061   3.689873
    12  H    3.373558   3.842874   4.718570   5.071750   5.461326
    13  H    2.141723   3.378249   5.850110   5.820818   5.850487
    14  H    1.080529   2.137520   5.457184   5.082099   4.714432
    15  H    2.137373   1.081096   3.684225   3.133016   2.454251
                   11         12         13         14         15
    11  H    0.000000
    12  H    2.457988   0.000000
    13  H    4.268739   2.468425   0.000000
    14  H    4.923947   4.268680   2.468489   0.000000
    15  H    4.264550   4.923967   4.268706   2.457847   0.000000
 Stoichiometry    C7H8
 Framework group  C1[X(C7H8)]
 Deg. of freedom    39
 Full point group                 C1      NOp   1
 Largest Abelian subgroup         C1      NOp   1
 Largest concise Abelian subgroup C1      NOp   1
                         Standard orientation:                         
 ---------------------------------------------------------------------
 Center     Atomic      Atomic             Coordinates (Angstroms)
 Number     Number       Type             X           Y           Z
 ---------------------------------------------------------------------
      1          6           0       -2.402631    0.000121    0.004845
      2          6           0       -0.903696    0.000310   -0.009880
      3          6           0       -0.194762   -1.194455   -0.005594
      4          6           0        1.188675   -1.196474    0.001537
      5          6           0        1.885249   -0.000248    0.004700
      6          6           0        1.189165    1.196186    0.001528
      7          6           0       -0.194352    1.194725   -0.005583
      8          1           0       -2.795960   -0.879750   -0.499374
      9          1           0       -2.764409   -0.011702    1.033759
     10          1           0       -2.796200    0.890840   -0.479563
     11          1           0       -0.733080   -2.131994   -0.009267
     12          1           0        1.724875   -2.134565    0.003018
     13          1           0        2.965368   -0.000491    0.008356
     14          1           0        1.725664    2.134115    0.003011
     15          1           0       -0.732151    2.132556   -0.009255
 ---------------------------------------------------------------------
 Rotational constants (GHZ):           5.6098813           2.5602077           1.7772555
 Standard basis: def2TZVP (5D, 7F)
 There are   300 symmetry adapted cartesian basis functions of A   symmetry.
 There are   265 symmetry adapted basis functions of A   symmetry.
   265 basis functions,   421 primitive gaussians,   300 cartesian basis functions
    25 alpha electrons       25 beta electrons
       nuclear repulsion energy       270.9594065641 Hartrees.
 NAtoms=   15 NActive=   15 NUniq=   15 SFac= 1.00D+00 NAtFMM=   60 NAOKFM=F Big=F
 Integral buffers will be    131072 words long.
 Raffenetti 2 integral format.
 Two-electron integral symmetry is turned on.
 One-electron integrals computed using PRISM.
   1 Symmetry operations used in ECPInt.
 ECPInt:  NShTT=    5995 NPrTT=   17944 LenC2=    5920 LenP2D=   14598.
 LDataN:  DoStor=T MaxTD1= 6 Len=  172
 NBasis=   265 RedAO= T EigKep=  8.14D-06  NBF=   265
 NBsUse=   265 1.00D-06 EigRej= -1.00D+00 NBFU=   265
 ExpMin= 9.52D-02 ExpMax= 1.36D+04 ExpMxC= 4.63D+02 IAcc=3 IRadAn=         5 AccDes= 0.00D+00
 Harris functional with IExCor= 1009 and IRadAn=       5 diagonalized for initial guess.
 HarFok:  IExCor= 1009 AccDes= 0.00D+00 IRadAn=         5 IDoV= 1 UseB2=F ITyADJ=14
 ICtDFT=  3500011 ScaDFX=  1.000000  1.000000  1.000000  1.000000
 FoFCou: FMM=F IPFlag=           0 FMFlag=      100000 FMFlg1=           0
         NFxFlg=           0 DoJE=T BraDBF=F KetDBF=T FulRan=T
         wScrn=  0.000000 ICntrl=       500 IOpCl=  0 I1Cent=   200000004 NGrid=           0
         NMat0=    1 NMatS0=      1 NMatT0=    0 NMatD0=    1 NMtDS0=    0 NMtDT0=    0
 Petite list used in FoFCou.
 Requested convergence on RMS density matrix=1.00D-08 within 128 cycles.
 Requested convergence on MAX density matrix=1.00D-06.
 Requested convergence on             energy=1.00D-06.
 No special actions if energy rises.
 Integral accuracy reduced to 1.0D-05 until final iterations.
 Initial convergence to 1.0D-05 achieved.  Increase integral accuracy.
 SCF Done:  E(RM062X) =  -271.534851304     A.U. after   13 cycles
            NFock= 13  Conv=0.25D-08     -V/T= 2.0047

 **********************************************************************

            Population analysis using the SCF Density.

 **********************************************************************

 Orbital symmetries:
       Occupied  (A) (A) (A) (A) (A) (A) (A) (A) (A) (A) (A) (A)
                 (A) (A) (A) (A) (A) (A) (A) (A) (A) (A) (A) (A)
                 (A)
       Virtual   (A) (A) (A) (A) (A) (A) (A) (A) (A) (A) (A) (A)
                 (A) (A) (A) (A) (A) (A) (A) (A) (A) (A) (A) (A)
                 (A) (A) (A) (A) (A) (A) (A) (A) (A) (A) (A) (A)
                 (A) (A) (A) (A) (A) (A) (A) (A) (A) (A) (A) (A)
                 (A) (A) (A) (A) (A) (A) (A) (A) (A) (A) (A) (A)
                 (A) (A) (A) (A) (A) (A) (A) (A) (A) (A) (A) (A)
                 (A) (A) (A) (A) (A) (A) (A) (A) (A) (A) (A) (A)
                 (A) (A) (A) (A) (A) (A) (A) (A) (A) (A) (A) (A)
                 (A) (A) (A) (A) (A) (A) (A) (A) (A) (A) (A) (A)
                 (A) (A) (A) (A) (A) (A) (A) (A) (A) (A) (A) (A)
                 (A) (A) (A) (A) (A) (A) (A) (A) (A) (A) (A) (A)
                 (A) (A) (A) (A) (A) (A) (A) (A) (A) (A) (A) (A)
                 (A) (A) (A) (A) (A) (A) (A) (A) (A) (A) (A) (A)
                 (A) (A) (A) (A) (A) (A) (A) (A) (A) (A) (A) (A)
                 (A) (A) (A) (A) (A) (A) (A) (A) (A) (A) (A) (A)
                 (A) (A) (A) (A) (A) (A) (A) (A) (A) (A) (A) (A)
                 (A) (A) (A) (A) (A) (A) (A) (A) (A) (A) (A) (A)
                 (A) (A) (A) (A) (A) (A) (A) (A) (A) (A) (A) (A)
                 (A) (A) (A) (A) (A) (A) (A) (A) (A) (A) (A) (A)
                 (A) (A) (A) (A) (A) (A) (A) (A) (A) (A) (A) (A)
 The electronic state is 1-A.
 Alpha  occ. eigenvalues --  -10.54500 -10.53637 -10.53626 -10.53376 -10.53357
 Alpha  occ. eigenvalues --  -10.53350 -10.52975  -0.96411  -0.87133  -0.84143
 Alpha  occ. eigenvalues --   -0.77603  -0.68787  -0.66402  -0.58689  -0.52949
 Alpha  occ. eigenvalues --   -0.52288  -0.49128  -0.48542  -0.47109  -0.44917
 Alpha  occ. eigenvalues --   -0.42594  -0.39683  -0.39525  -0.30673  -0.29568
 Alpha virt. eigenvalues --    0.02466   0.02837   0.07807   0.09410   0.10836
 Alpha virt. eigenvalues --    0.12644   0.13848   0.14156   0.15904   0.16691
 Alpha virt. eigenvalues --    0.17926   0.19332   0.20867   0.22183   0.22633
 Alpha virt. eigenvalues --    0.25369   0.26150   0.26669   0.27780   0.28966
 Alpha virt. eigenvalues --    0.29558   0.31311   0.31598   0.35420   0.35465
 Alpha virt. eigenvalues --    0.36148   0.38162   0.39387   0.39895   0.40013
 Alpha virt. eigenvalues --    0.40773   0.43943   0.44881   0.44987   0.45734
 Alpha virt. eigenvalues --    0.47348   0.48542   0.49001   0.49253   0.52368
 Alpha virt. eigenvalues --    0.53699   0.54406   0.54683   0.55826   0.56447
 Alpha virt. eigenvalues --    0.59857   0.60507   0.63703   0.69232   0.69778
 Alpha virt. eigenvalues --    0.71276   0.74063   0.75689   0.75896   0.79136
 Alpha virt. eigenvalues --    0.79452   0.82252   0.85495   0.87091   0.87655
 Alpha virt. eigenvalues --    0.90340   0.90936   0.93802   0.97067   0.97404
 Alpha virt. eigenvalues --    1.00215   1.03228   1.04375   1.06595   1.07418
 Alpha virt. eigenvalues --    1.11375   1.14369   1.16045   1.16316   1.23246
 Alpha virt. eigenvalues --    1.23381   1.26680   1.26791   1.28038   1.30758
 Alpha virt. eigenvalues --    1.30977   1.33710   1.34745   1.35630   1.42941
 Alpha virt. eigenvalues --    1.47179   1.47243   1.49736   1.50333   1.54556
 Alpha virt. eigenvalues --    1.55861   1.57172   1.58249   1.60912   1.60950
 Alpha virt. eigenvalues --    1.64046   1.65526   1.65697   1.67440   1.70850
 Alpha virt. eigenvalues --    1.73489   1.74411   1.75262   1.77087   1.77794
 Alpha virt. eigenvalues --    1.79119   1.89970   1.90911   1.94555   1.96748
 Alpha virt. eigenvalues --    1.99814   2.02773   2.03630   2.07681   2.10139
 Alpha virt. eigenvalues --    2.10239   2.12630   2.17308   2.19973   2.21260
 Alpha virt. eigenvalues --    2.22373   2.23509   2.26726   2.28498   2.33312
 Alpha virt. eigenvalues --    2.38591   2.39179   2.40348   2.47002   2.49754
 Alpha virt. eigenvalues --    2.52721   2.53298   2.54261   2.56535   2.57450
 Alpha virt. eigenvalues --    2.62479   2.63710   2.66002   2.66626   2.69066
 Alpha virt. eigenvalues --    2.69688   2.69976   2.71190   2.72019   2.76310
 Alpha virt. eigenvalues --    2.78092   2.79108   2.79613   2.80230   2.83112
 Alpha virt. eigenvalues --    2.85243   2.86131   2.86376   2.90040   2.92750
 Alpha virt. eigenvalues --    2.96147   2.99888   3.01079   3.03013   3.03584
 Alpha virt. eigenvalues --    3.04871   3.10025   3.10229   3.14447   3.15363
 Alpha virt. eigenvalues --    3.16233   3.17776   3.18978   3.19232   3.19854
 Alpha virt. eigenvalues --    3.21724   3.22363   3.25808   3.28858   3.31611
 Alpha virt. eigenvalues --    3.33122   3.34313   3.35670   3.36072   3.39396
 Alpha virt. eigenvalues --    3.40474   3.42124   3.43296   3.45124   3.47784
 Alpha virt. eigenvalues --    3.50207   3.51413   3.54903   3.58216   3.58769
 Alpha virt. eigenvalues --    3.64418   3.67256   3.68030   3.71246   3.77065
 Alpha virt. eigenvalues --    3.78268   3.82852   3.86315   3.89247   3.89971
 Alpha virt. eigenvalues --    3.94379   4.02722   4.06952   4.10314   4.11090
 Alpha virt. eigenvalues --    4.12610   4.15626   4.17368   4.18412   4.19234
 Alpha virt. eigenvalues --    4.22597   4.26430   4.30355   4.30544   4.32833
 Alpha virt. eigenvalues --    4.40483   4.46079   4.51325   4.55986   4.62967
 Alpha virt. eigenvalues --    4.64874   4.67109   4.69966   4.84760   4.85195
 Alpha virt. eigenvalues --    4.92962   5.00456   5.19036   5.19971   5.31285
 Alpha virt. eigenvalues --    5.33299   5.42047   5.57615  22.03884  22.53488
 Alpha virt. eigenvalues --   22.73541  22.74854  22.85171  22.94609  23.34783
          Condensed to atoms (all electrons):
               1          2          3          4          5          6
     1  C    5.071810   0.270178  -0.068323   0.009097  -0.002440   0.009345
     2  C    0.270178   4.927649   0.519944  -0.060240  -0.042674  -0.060346
     3  C   -0.068323   0.519944   4.989492   0.519547  -0.041777  -0.044538
     4  C    0.009097  -0.060240   0.519547   4.879801   0.525974  -0.050053
     5  C   -0.002440  -0.042674  -0.041777   0.525974   4.890358   0.526158
     6  C    0.009345  -0.060346  -0.044538  -0.050053   0.526158   4.880154
     7  C   -0.068093   0.521087  -0.061864  -0.044526  -0.041691   0.518941
     8  H    0.434289  -0.056901  -0.013990   0.001584   0.000098  -0.000674
     9  H    0.389930  -0.026050  -0.003652  -0.001195   0.000482  -0.001205
    10  H    0.434403  -0.057191   0.010798  -0.000657   0.000090   0.001645
    11  H   -0.004499  -0.039749   0.404940  -0.025683   0.003667  -0.000395
    12  H   -0.000236   0.004512  -0.034310   0.410224  -0.032641   0.003895
    13  H    0.000107   0.001563   0.002841  -0.030908   0.405975  -0.030926
    14  H   -0.000239   0.004511   0.000026   0.003887  -0.032605   0.410172
    15  H   -0.004750  -0.039619   0.006780  -0.000394   0.003653  -0.025587
               7          8          9         10         11         12
     1  C   -0.068093   0.434289   0.389930   0.434403  -0.004499  -0.000236
     2  C    0.521087  -0.056901  -0.026050  -0.057191  -0.039749   0.004512
     3  C   -0.061864  -0.013990  -0.003652   0.010798   0.404940  -0.034310
     4  C   -0.044526   0.001584  -0.001195  -0.000657  -0.025683   0.410224
     5  C   -0.041691   0.000098   0.000482   0.000090   0.003667  -0.032641
     6  C    0.518941  -0.000674  -0.001205   0.001645  -0.000395   0.003895
     7  C    4.988787   0.010629  -0.003520  -0.013998   0.006732   0.000017
     8  H    0.010629   0.535782  -0.028724  -0.026067   0.000328  -0.000025
     9  H   -0.003520  -0.028724   0.543592  -0.028260   0.000568   0.000008
    10  H   -0.013998  -0.026067  -0.028260   0.535735  -0.000011   0.000011
    11  H    0.006732   0.000328   0.000568  -0.000011   0.517647  -0.004120
    12  H    0.000017  -0.000025   0.000008   0.000011  -0.004120   0.517727
    13  H    0.002859  -0.000003  -0.000001  -0.000003  -0.000316  -0.004017
    14  H   -0.034289   0.000011   0.000009  -0.000025   0.000087  -0.000305
    15  H    0.404789  -0.000009   0.000560   0.000390  -0.000267   0.000088
              13         14         15
     1  C    0.000107  -0.000239  -0.004750
     2  C    0.001563   0.004511  -0.039619
     3  C    0.002841   0.000026   0.006780
     4  C   -0.030908   0.003887  -0.000394
     5  C    0.405975  -0.032605   0.003653
     6  C   -0.030926   0.410172  -0.025587
     7  C    0.002859  -0.034289   0.404789
     8  H   -0.000003   0.000011  -0.000009
     9  H   -0.000001   0.000009   0.000560
    10  H   -0.000003  -0.000025   0.000390
    11  H   -0.000316   0.000087  -0.000267
    12  H   -0.004017  -0.000305   0.000088
    13  H    0.517064  -0.004020  -0.000316
    14  H   -0.004020   0.517722  -0.004106
    15  H   -0.000316  -0.004106   0.517869
 Mulliken charges:
               1
     1  C   -0.470579
     2  C    0.133326
     3  C   -0.185914
     4  C   -0.136459
     5  C   -0.162626
     6  C   -0.136587
     7  C   -0.185859
     8  H    0.143671
     9  H    0.157458
    10  H    0.143142
    11  H    0.141070
    12  H    0.139172
    13  H    0.140101
    14  H    0.139164
    15  H    0.140920
 Sum of Mulliken charges =  -0.00000
 Mulliken charges with hydrogens summed into heavy atoms:
               1
     1  C   -0.026308
     2  C    0.133326
     3  C   -0.044844
     4  C    0.002713
     5  C   -0.022525
     6  C    0.002578
     7  C   -0.044939
 Electronic spatial extent (au):  <R**2>=            709.3361
 Charge=             -0.0000 electrons
 Dipole moment (field-independent basis, Debye):
    X=             -0.3660    Y=             -0.0015    Z=              0.0429  Tot=              0.3685
 Quadrupole moment (field-independent basis, Debye-Ang):
   XX=            -38.3968   YY=            -38.6027   ZZ=            -46.1480
   XY=              0.0022   XZ=             -0.0303   YZ=              0.0001
 Traceless Quadrupole moment (field-independent basis, Debye-Ang):
   XX=              2.6524   YY=              2.4465   ZZ=             -5.0988
   XY=              0.0022   XZ=             -0.0303   YZ=              0.0001
 Octapole moment (field-independent basis, Debye-Ang**2):
  XXX=              4.8856  YYY=              0.0190  ZZZ=              0.7780  XYY=              0.9735
  XXY=             -0.0045  XXZ=              0.0664  XZZ=             -3.8751  YZZ=             -0.0233
  YYZ=             -0.6107  XYZ=             -0.0007
 Hexadecapole moment (field-independent basis, Debye-Ang**3):
 XXXX=           -604.2766 YYYY=           -284.3493 ZZZZ=            -60.5941 XXXY=             -0.0079
 XXXZ=              0.3921 YYYX=             -0.0558 YYYZ=              0.0011 ZZZX=             -2.0664
 ZZZY=             -0.0021 XXYY=           -144.4460 XXZZ=           -118.8559 YYZZ=            -67.8712
 XXYZ=              0.0023 YYXZ=              1.9109 ZZXY=              0.0654
 N-N= 2.709594065641D+02 E-N=-1.171165128264D+03  KE= 2.702550636993D+02
   1 Symmetry operations used in ECPInt.
 ECPInt:  NShTT=    5995 NPrTT=   17944 LenC2=    5920 LenP2D=   14598.
 LDataN:  DoStor=T MaxTD1= 7 Len=  274
 Calling FoFJK, ICntrl=      2127 FMM=F ISym2X=0 I1Cent= 0 IOpClX= 0 NMat=1 NMatS=1 NMatT=0.
 ***** Axes restored to original set *****
 -------------------------------------------------------------------
 Center     Atomic                   Forces (Hartrees/Bohr)
 Number     Number              X              Y              Z
 -------------------------------------------------------------------
      1        6           0.000231138    0.000038132   -0.001273234
      2        6          -0.001227856   -0.000022546    0.000726555
      3        6          -0.000402561    0.000112596    0.000039961
      4        6           0.001485588    0.001906584   -0.000246500
      5        6           0.002693432   -0.000020683   -0.000116463
      6        6           0.001525812   -0.001890606   -0.000248897
      7        6          -0.000425709   -0.000114555    0.000041899
      8        1          -0.001384110    0.000536458    0.000498037
      9        1          -0.001797851    0.000000612   -0.000555724
     10        1          -0.001388432   -0.000567165    0.000490614
     11        1          -0.001178096    0.001614879    0.000226031
     12        1           0.000772062    0.001303280    0.000063608
     13        1           0.001506195   -0.000002682    0.000064468
     14        1           0.000775493   -0.001294856    0.000064105
     15        1          -0.001185106   -0.001599448    0.000225541
 -------------------------------------------------------------------
 Cartesian Forces:  Max     0.002693432 RMS     0.001017809

 GradGradGradGradGradGradGradGradGradGradGradGradGradGradGradGradGradGrad
 Berny optimization.
 FormGI is forming the generalized inverse of G from B-inverse, IUseBI=4.
 Internal  Forces:  Max     0.004394124 RMS     0.001406162
 Search for a local minimum.
 Step number   1 out of a maximum of   79
 All quantities printed in internal units (Hartrees-Bohrs-Radians)
 Mixed Optimization -- RFO/linear search
 Second derivative matrix not updated -- first step.
 ITU=  0
     Eigenvalues ---    0.00779   0.01642   0.02240   0.02265   0.02272
     Eigenvalues ---    0.02290   0.02297   0.02300   0.02302   0.02303
     Eigenvalues ---    0.07234   0.07409   0.16000   0.16000   0.16000
     Eigenvalues ---    0.16000   0.16000   0.16000   0.16000   0.16000
     Eigenvalues ---    0.22000   0.22000   0.23474   0.24995   0.32482
     Eigenvalues ---    0.34729   0.35078   0.35089   0.35862   0.35862
     Eigenvalues ---    0.35930   0.35931   0.35979   0.43463   0.43468
     Eigenvalues ---    0.47651   0.47930   0.48365   0.48469
 RFO step:  Lambda=-3.80686375D-04 EMin= 7.79069813D-03
 Linear search not attempted -- first point.
 Iteration  1 RMS(Cart)=  0.00991238 RMS(Int)=  0.00002049
 Iteration  2 RMS(Cart)=  0.00002069 RMS(Int)=  0.00001077
 Iteration  3 RMS(Cart)=  0.00000000 RMS(Int)=  0.00001077
 Variable       Old X    -DE/DX   Delta X   Delta X   Delta X     New X
                                 (Linear)    (Quad)   (Total)
    R1        2.83271   0.00435   0.00000   0.01337   0.01337   2.84608
    R2        2.05548   0.00117   0.00000   0.00332   0.00332   2.05880
    R3        2.06118   0.00112   0.00000   0.00322   0.00322   2.06440
    R4        2.05531   0.00119   0.00000   0.00337   0.00337   2.05869
    R5        2.62534   0.00325   0.00000   0.00675   0.00675   2.63209
    R6        2.62517   0.00323   0.00000   0.00672   0.00672   2.63189
    R7        2.61436   0.00437   0.00000   0.00900   0.00900   2.62336
    R8        2.04298   0.00199   0.00000   0.00554   0.00554   2.04852
    R9        2.61588   0.00349   0.00000   0.00730   0.00730   2.62318
   R10        2.04189   0.00151   0.00000   0.00421   0.00421   2.04610
   R11        2.61575   0.00346   0.00000   0.00724   0.00724   2.62299
   R12        2.04114   0.00151   0.00000   0.00418   0.00418   2.04532
   R13        2.61451   0.00439   0.00000   0.00906   0.00906   2.62357
   R14        2.04190   0.00151   0.00000   0.00420   0.00420   2.04610
   R15        2.04298   0.00198   0.00000   0.00551   0.00551   2.04848
    A1        1.93600   0.00085   0.00000   0.00485   0.00483   1.94083
    A2        1.91871   0.00184   0.00000   0.01241   0.01236   1.93107
    A3        1.93624   0.00084   0.00000   0.00476   0.00474   1.94098
    A4        1.88450  -0.00123   0.00000  -0.00675  -0.00679   1.87771
    A5        1.90197  -0.00120   0.00000  -0.00921  -0.00921   1.89276
    A6        1.88493  -0.00123   0.00000  -0.00683  -0.00687   1.87806
    A7        2.10613   0.00063   0.00000   0.00273   0.00273   2.10886
    A8        2.10677   0.00063   0.00000   0.00270   0.00270   2.10947
    A9        2.07014  -0.00126   0.00000  -0.00549  -0.00549   2.06465
   A10        2.10779   0.00088   0.00000   0.00368   0.00368   2.11147
   A11        2.08483  -0.00066   0.00000  -0.00323  -0.00323   2.08159
   A12        2.09057  -0.00022   0.00000  -0.00045  -0.00045   2.09012
   A13        2.09665   0.00007   0.00000   0.00036   0.00036   2.09701
   A14        2.09152  -0.00001   0.00000  -0.00003  -0.00004   2.09148
   A15        2.09501  -0.00006   0.00000  -0.00033  -0.00033   2.09468
   A16        2.08734  -0.00062   0.00000  -0.00259  -0.00259   2.08476
   A17        2.09789   0.00032   0.00000   0.00131   0.00131   2.09919
   A18        2.09795   0.00031   0.00000   0.00127   0.00127   2.09922
   A19        2.09667   0.00006   0.00000   0.00035   0.00034   2.09702
   A20        2.09508  -0.00006   0.00000  -0.00037  -0.00037   2.09471
   A21        2.09143  -0.00000   0.00000   0.00002   0.00002   2.09145
   A22        2.10777   0.00088   0.00000   0.00369   0.00369   2.11146
   A23        2.08500  -0.00068   0.00000  -0.00333  -0.00333   2.08166
   A24        2.09042  -0.00020   0.00000  -0.00036  -0.00036   2.09006
    D1       -0.53309  -0.00022   0.00000  -0.00440  -0.00442  -0.53751
    D2        2.62735  -0.00015   0.00000  -0.00077  -0.00078   2.62657
    D3        1.54990  -0.00003   0.00000  -0.00175  -0.00175   1.54814
    D4       -1.57285   0.00004   0.00000   0.00188   0.00189  -1.57096
    D5       -2.64961   0.00015   0.00000   0.00075   0.00076  -2.64885
    D6        0.51083   0.00022   0.00000   0.00438   0.00440   0.51523
    D7       -3.12418   0.00019   0.00000   0.00894   0.00894  -3.11524
    D8        0.01890   0.00019   0.00000   0.00920   0.00920   0.02809
    D9       -0.00104   0.00014   0.00000   0.00547   0.00547   0.00443
   D10       -3.14116   0.00014   0.00000   0.00574   0.00573  -3.13542
   D11        3.12419  -0.00019   0.00000  -0.00896  -0.00896   3.11523
   D12       -0.01891  -0.00019   0.00000  -0.00919  -0.00918  -0.02810
   D13        0.00106  -0.00014   0.00000  -0.00549  -0.00549  -0.00443
   D14        3.14115  -0.00014   0.00000  -0.00572  -0.00572   3.13543
   D15        0.00017  -0.00005   0.00000  -0.00217  -0.00218  -0.00201
   D16       -3.13969   0.00001   0.00000   0.00059   0.00059  -3.13911
   D17        3.14028  -0.00006   0.00000  -0.00243  -0.00244   3.13784
   D18        0.00041   0.00001   0.00000   0.00033   0.00032   0.00074
   D19        0.00070  -0.00003   0.00000  -0.00122  -0.00123  -0.00053
   D20       -3.13955   0.00006   0.00000   0.00270   0.00270  -3.13685
   D21        3.14056  -0.00010   0.00000  -0.00399  -0.00400   3.13657
   D22        0.00032  -0.00000   0.00000  -0.00007  -0.00007   0.00025
   D23       -0.00068   0.00003   0.00000   0.00121   0.00121   0.00053
   D24       -3.14057   0.00010   0.00000   0.00400   0.00401  -3.13657
   D25        3.13956  -0.00006   0.00000  -0.00271  -0.00271   3.13685
   D26       -0.00033   0.00000   0.00000   0.00008   0.00008  -0.00025
   D27       -0.00021   0.00006   0.00000   0.00220   0.00221   0.00200
   D28       -3.14029   0.00006   0.00000   0.00244   0.00244  -3.13784
   D29        3.13969  -0.00001   0.00000  -0.00058  -0.00058   3.13911
   D30       -0.00039  -0.00001   0.00000  -0.00035  -0.00035  -0.00074
         Item               Value     Threshold  Converged?
 Maximum Force            0.004394     0.000450     NO 
 RMS     Force            0.001406     0.000300     NO 
 Maximum Displacement     0.033902     0.001800     NO 
 RMS     Displacement     0.009907     0.001200     NO 
 Predicted change in Energy=-1.906978D-04
 GradGradGradGradGradGradGradGradGradGradGradGradGradGradGradGradGradGrad

                          Input orientation:                          
 ---------------------------------------------------------------------
 Center     Atomic      Atomic             Coordinates (Angstroms)
 Number     Number       Type             X           Y           Z
 ---------------------------------------------------------------------
      1          6           0       -2.448578   -0.000043   -0.010620
      2          6           0       -0.942656   -0.000258    0.011413
      3          6           0       -0.228567    1.195601    0.008418
      4          6           0        1.159606    1.198883   -0.002679
      5          6           0        1.859623    0.000202   -0.008595
      6          6           0        1.160043   -1.198621   -0.002685
      7          6           0       -0.228241   -1.195796    0.008412
      8          1           0       -2.849876    0.878299    0.493778
      9          1           0       -2.818700    0.011684   -1.038375
     10          1           0       -2.849972   -0.889326    0.474017
     11          1           0       -0.768739    2.135426    0.016522
     12          1           0        1.696046    2.139404   -0.002500
     13          1           0        2.941952    0.000393   -0.012813
     14          1           0        1.696758   -2.138985   -0.002508
     15          1           0       -0.768038   -2.135815    0.016505
 ---------------------------------------------------------------------
                    Distance matrix (angstroms):
                    1          2          3          4          5
     1  C    0.000000
     2  C    1.506083   0.000000
     3  C    2.521582   1.392843   0.000000
     4  C    3.802167   2.420257   1.388221   0.000000
     5  C    4.308201   2.802351   2.406201   1.388127   0.000000
     6  C    3.802472   2.420252   2.767790   2.397505   1.388029
     7  C    2.521921   1.392735   2.391397   2.767803   2.406216
     8  H    1.089468   2.154536   2.684682   4.052800   4.816930
     9  H    1.092433   2.149823   3.034177   4.278905   4.790333
    10  H    1.089410   2.154600   3.381637   4.545830   4.817101
    11  H    2.717135   2.142759   1.084031   2.143827   3.386458
    12  H    4.664248   3.397219   2.143599   1.082750   2.145456
    13  H    5.390531   3.884684   3.388386   2.147846   1.082338
    14  H    4.664649   3.397183   3.850514   3.380813   2.145386
    15  H    2.717806   2.142690   3.374822   3.851803   3.386414
                    6          7          8          9         10
     6  C    0.000000
     7  C    1.388331   0.000000
     8  H    4.543074   3.377931   0.000000
     9  H    4.285778   3.043723   1.760536   0.000000
    10  H    4.050078   2.680333   1.767735   1.760718   0.000000
    11  H    3.851810   3.374796   2.477756   3.134554   3.699994
    12  H    3.380786   3.850528   4.743636   5.097368   5.483298
    13  H    2.147776   3.388428   5.879849   5.851241   5.880051
    14  H    1.082749   2.143676   5.479250   5.107618   4.739354
    15  H    2.143874   1.084011   3.694146   3.151149   2.469312
                   11         12         13         14         15
    11  H    0.000000
    12  H    2.464861   0.000000
    13  H    4.281175   2.475431   0.000000
    14  H    4.934534   4.278389   2.475390   0.000000
    15  H    4.271241   4.934528   4.281153   2.464871   0.000000
 Stoichiometry    C7H8
 Framework group  C1[X(C7H8)]
 Deg. of freedom    39
 Full point group                 C1      NOp   1
 Largest Abelian subgroup         C1      NOp   1
 Largest concise Abelian subgroup C1      NOp   1
                         Standard orientation:                         
 ---------------------------------------------------------------------
 Center     Atomic      Atomic             Coordinates (Angstroms)
 Number     Number       Type             X           Y           Z
 ---------------------------------------------------------------------
      1          6           0       -2.413917    0.000109    0.009309
      2          6           0       -0.907989    0.000294   -0.012322
      3          6           0       -0.193924   -1.195579   -0.009136
      4          6           0        1.194245   -1.198890    0.002332
      5          6           0        1.894285   -0.000222    0.008432
      6          6           0        1.194730    1.198615    0.002334
      7          6           0       -0.193551    1.195818   -0.009133
      8          1           0       -2.815098   -0.878225   -0.495195
      9          1           0       -2.784313   -0.011609    1.036965
     10          1           0       -2.815164    0.889400   -0.475436
     11          1           0       -0.734113   -2.135393   -0.017382
     12          1           0        1.730666   -2.139421    0.002297
     13          1           0        2.976613   -0.000435    0.012938
     14          1           0        1.731464    2.138968    0.002299
     15          1           0       -0.733326    2.135847   -0.017371
 ---------------------------------------------------------------------
 Rotational constants (GHZ):           5.5930860           2.5357536           1.7637992
 Standard basis: def2TZVP (5D, 7F)
 There are   300 symmetry adapted cartesian basis functions of A   symmetry.
 There are   265 symmetry adapted basis functions of A   symmetry.
   265 basis functions,   421 primitive gaussians,   300 cartesian basis functions
    25 alpha electrons       25 beta electrons
       nuclear repulsion energy       270.0784292984 Hartrees.
 NAtoms=   15 NActive=   15 NUniq=   15 SFac= 1.00D+00 NAtFMM=   60 NAOKFM=F Big=F
 Integral buffers will be    131072 words long.
 Raffenetti 2 integral format.
 Two-electron integral symmetry is turned on.
 One-electron integrals computed using PRISM.
   1 Symmetry operations used in ECPInt.
 ECPInt:  NShTT=    5995 NPrTT=   17944 LenC2=    5920 LenP2D=   14588.
 LDataN:  DoStor=T MaxTD1= 6 Len=  172
 NBasis=   265 RedAO= T EigKep=  8.39D-06  NBF=   265
 NBsUse=   265 1.00D-06 EigRej= -1.00D+00 NBFU=   265
 Initial guess from the checkpoint file:  "/home/svss/projects/Project-Philicity/GS/hydrocarbon/set-1/GS/mol_12_hc/mol_12_hc.chk"
 B after Tr=    -0.000000    0.000000    0.000000
         Rot=    1.000000    0.000001    0.000014   -0.000003 Ang=   0.00 deg.
 ExpMin= 9.52D-02 ExpMax= 1.36D+04 ExpMxC= 4.63D+02 IAcc=3 IRadAn=         5 AccDes= 0.00D+00
 Harris functional with IExCor= 1009 and IRadAn=       5 diagonalized for initial guess.
 HarFok:  IExCor= 1009 AccDes= 0.00D+00 IRadAn=         5 IDoV= 1 UseB2=F ITyADJ=14
 ICtDFT=  3500011 ScaDFX=  1.000000  1.000000  1.000000  1.000000
 FoFCou: FMM=F IPFlag=           0 FMFlag=      100000 FMFlg1=           0
         NFxFlg=           0 DoJE=T BraDBF=F KetDBF=T FulRan=T
         wScrn=  0.000000 ICntrl=       500 IOpCl=  0 I1Cent=   200000004 NGrid=           0
         NMat0=    1 NMatS0=      1 NMatT0=    0 NMatD0=    1 NMtDS0=    0 NMtDT0=    0
 Petite list used in FoFCou.
 Requested convergence on RMS density matrix=1.00D-08 within 128 cycles.
 Requested convergence on MAX density matrix=1.00D-06.
 Requested convergence on             energy=1.00D-06.
 No special actions if energy rises.
 Integral accuracy reduced to 1.0D-05 until final iterations.
 Initial convergence to 1.0D-05 achieved.  Increase integral accuracy.
 SCF Done:  E(RM062X) =  -271.535018138     A.U. after   10 cycles
            NFock= 10  Conv=0.48D-08     -V/T= 2.0051
   1 Symmetry operations used in ECPInt.
 ECPInt:  NShTT=    5995 NPrTT=   17944 LenC2=    5920 LenP2D=   14588.
 LDataN:  DoStor=T MaxTD1= 7 Len=  274
 Calling FoFJK, ICntrl=      2127 FMM=F ISym2X=0 I1Cent= 0 IOpClX= 0 NMat=1 NMatS=1 NMatT=0.
 ***** Axes restored to original set *****
 -------------------------------------------------------------------
 Center     Atomic                   Forces (Hartrees/Bohr)
 Number     Number              X              Y              Z
 -------------------------------------------------------------------
      1        6           0.001227027    0.000010445   -0.000329649
      2        6          -0.000378729   -0.000005057   -0.000050136
      3        6           0.000212125   -0.000273834   -0.000083692
      4        6          -0.000304722   -0.000143048    0.000088686
      5        6          -0.000335660   -0.000005604    0.000017372
      6        6          -0.000296733    0.000149934    0.000089352
      7        6           0.000204041    0.000276891   -0.000085475
      8        1          -0.000035160    0.000092731    0.000141611
      9        1           0.000059153   -0.000004173    0.000070675
     10        1          -0.000034458   -0.000099153    0.000140140
     11        1           0.000073728    0.000000074    0.000032866
     12        1          -0.000159515   -0.000060743   -0.000001142
     13        1          -0.000141909   -0.000000245   -0.000062270
     14        1          -0.000159447    0.000060889   -0.000001077
     15        1           0.000070258    0.000000893    0.000032739
 -------------------------------------------------------------------
 Cartesian Forces:  Max     0.001227027 RMS     0.000237089

 GradGradGradGradGradGradGradGradGradGradGradGradGradGradGradGradGradGrad
 Berny optimization.
 Using GEDIIS/GDIIS optimizer.
 FormGI is forming the generalized inverse of G from B-inverse, IUseBI=4.
 Internal  Forces:  Max     0.001216752 RMS     0.000221570
 Search for a local minimum.
 Step number   2 out of a maximum of   79
 All quantities printed in internal units (Hartrees-Bohrs-Radians)
 Mixed Optimization -- En-DIIS/RFO-DIIS
 Update second derivatives using D2CorX and points    1    2
 DE= -1.67D-04 DEPred=-1.91D-04 R= 8.75D-01
 TightC=F SS=  1.41D+00  RLast= 4.17D-02 DXNew= 5.0454D-01 1.2514D-01
 Trust test= 8.75D-01 RLast= 4.17D-02 DXMaxT set to 3.00D-01
 ITU=  1  0
 Use linear search instead of GDIIS.
     Eigenvalues ---    0.00779   0.01641   0.02234   0.02265   0.02271
     Eigenvalues ---    0.02290   0.02299   0.02300   0.02302   0.02305
     Eigenvalues ---    0.07151   0.07298   0.15737   0.16000   0.16000
     Eigenvalues ---    0.16000   0.16000   0.16000   0.16000   0.16108
     Eigenvalues ---    0.22000   0.22006   0.23612   0.24993   0.33868
     Eigenvalues ---    0.34787   0.34820   0.35083   0.35826   0.35862
     Eigenvalues ---    0.35931   0.35961   0.36273   0.43465   0.43523
     Eigenvalues ---    0.47652   0.48044   0.48365   0.52303
 RFO step:  Lambda=-3.43926076D-06 EMin= 7.79069535D-03
 Quartic linear search produced a step of -0.10737.
 Iteration  1 RMS(Cart)=  0.00128404 RMS(Int)=  0.00000118
 Iteration  2 RMS(Cart)=  0.00000041 RMS(Int)=  0.00000115
 Variable       Old X    -DE/DX   Delta X   Delta X   Delta X     New X
                                 (Linear)    (Quad)   (Total)
    R1        2.84608  -0.00122  -0.00144  -0.00180  -0.00323   2.84285
    R2        2.05880   0.00015  -0.00036   0.00077   0.00042   2.05921
    R3        2.06440  -0.00009  -0.00035   0.00015  -0.00020   2.06420
    R4        2.05869   0.00016  -0.00036   0.00079   0.00042   2.05911
    R5        2.63209  -0.00048  -0.00073  -0.00013  -0.00085   2.63124
    R6        2.63189  -0.00048  -0.00072  -0.00014  -0.00087   2.63102
    R7        2.62336  -0.00070  -0.00097  -0.00025  -0.00122   2.62214
    R8        2.04852  -0.00004  -0.00059   0.00055  -0.00004   2.04848
    R9        2.62318  -0.00027  -0.00078   0.00036  -0.00042   2.62276
   R10        2.04610  -0.00013  -0.00045   0.00016  -0.00029   2.04581
   R11        2.62299  -0.00027  -0.00078   0.00035  -0.00043   2.62256
   R12        2.04532  -0.00014  -0.00045   0.00013  -0.00032   2.04500
   R13        2.62357  -0.00070  -0.00097  -0.00023  -0.00121   2.62236
   R14        2.04610  -0.00013  -0.00045   0.00016  -0.00029   2.04581
   R15        2.04848  -0.00004  -0.00059   0.00055  -0.00004   2.04844
    A1        1.94083  -0.00003  -0.00052   0.00028  -0.00024   1.94059
    A2        1.93107  -0.00001  -0.00133   0.00155   0.00023   1.93130
    A3        1.94098  -0.00004  -0.00051   0.00023  -0.00028   1.94070
    A4        1.87771   0.00006   0.00073  -0.00029   0.00045   1.87815
    A5        1.89276  -0.00003   0.00099  -0.00154  -0.00055   1.89222
    A6        1.87806   0.00005   0.00074  -0.00033   0.00041   1.87847
    A7        2.10886  -0.00011  -0.00029  -0.00005  -0.00034   2.10852
    A8        2.10947  -0.00012  -0.00029  -0.00008  -0.00037   2.10910
    A9        2.06465   0.00023   0.00059   0.00014   0.00073   2.06538
   A10        2.11147  -0.00008  -0.00040   0.00007  -0.00033   2.11114
   A11        2.08159   0.00011   0.00035   0.00017   0.00052   2.08211
   A12        2.09012  -0.00002   0.00005  -0.00024  -0.00019   2.08993
   A13        2.09701  -0.00006  -0.00004  -0.00017  -0.00021   2.09680
   A14        2.09148  -0.00008   0.00000  -0.00052  -0.00051   2.09097
   A15        2.09468   0.00014   0.00004   0.00069   0.00072   2.09540
   A16        2.08476   0.00007   0.00028   0.00006   0.00034   2.08509
   A17        2.09919  -0.00003  -0.00014  -0.00003  -0.00017   2.09903
   A18        2.09922  -0.00003  -0.00014  -0.00003  -0.00017   2.09906
   A19        2.09702  -0.00006  -0.00004  -0.00017  -0.00020   2.09681
   A20        2.09471   0.00014   0.00004   0.00068   0.00072   2.09543
   A21        2.09145  -0.00008  -0.00000  -0.00051  -0.00051   2.09094
   A22        2.11146  -0.00009  -0.00040   0.00007  -0.00033   2.11113
   A23        2.08166   0.00010   0.00036   0.00014   0.00050   2.08216
   A24        2.09006  -0.00002   0.00004  -0.00021  -0.00017   2.08989
    D1       -0.53751  -0.00003   0.00047  -0.00033   0.00014  -0.53737
    D2        2.62657  -0.00005   0.00008  -0.00113  -0.00105   2.62552
    D3        1.54814   0.00001   0.00019   0.00051   0.00070   1.54884
    D4       -1.57096  -0.00001  -0.00020  -0.00029  -0.00049  -1.57145
    D5       -2.64885   0.00005  -0.00008   0.00127   0.00119  -2.64766
    D6        0.51523   0.00003  -0.00047   0.00047  -0.00000   0.51523
    D7       -3.11524  -0.00002  -0.00096  -0.00021  -0.00117  -3.11641
    D8        0.02809   0.00000  -0.00099   0.00080  -0.00019   0.02791
    D9        0.00443  -0.00000  -0.00059   0.00057  -0.00002   0.00441
   D10       -3.13542   0.00002  -0.00062   0.00157   0.00096  -3.13446
   D11        3.11523   0.00002   0.00096   0.00021   0.00117   3.11641
   D12       -0.02810  -0.00000   0.00099  -0.00079   0.00019  -0.02790
   D13       -0.00443   0.00000   0.00059  -0.00056   0.00003  -0.00440
   D14        3.13543  -0.00002   0.00061  -0.00157  -0.00095   3.13447
   D15       -0.00201   0.00002   0.00023   0.00034   0.00058  -0.00143
   D16       -3.13911  -0.00000  -0.00006  -0.00007  -0.00013  -3.13924
   D17        3.13784  -0.00001   0.00026  -0.00067  -0.00041   3.13743
   D18        0.00074  -0.00003  -0.00003  -0.00108  -0.00112  -0.00038
   D19       -0.00053  -0.00003   0.00013  -0.00125  -0.00112  -0.00165
   D20       -3.13685  -0.00004  -0.00029  -0.00114  -0.00143  -3.13827
   D21        3.13657  -0.00001   0.00043  -0.00085  -0.00042   3.13615
   D22        0.00025  -0.00002   0.00001  -0.00073  -0.00072  -0.00048
   D23        0.00053   0.00003  -0.00013   0.00126   0.00113   0.00165
   D24       -3.13657   0.00001  -0.00043   0.00084   0.00041  -3.13615
   D25        3.13685   0.00004   0.00029   0.00114   0.00143   3.13828
   D26       -0.00025   0.00002  -0.00001   0.00073   0.00072   0.00047
   D27        0.00200  -0.00002  -0.00024  -0.00035  -0.00058   0.00142
   D28       -3.13784   0.00001  -0.00026   0.00066   0.00040  -3.13744
   D29        3.13911   0.00000   0.00006   0.00007   0.00013   3.13924
   D30       -0.00074   0.00003   0.00004   0.00108   0.00111   0.00037
         Item               Value     Threshold  Converged?
 Maximum Force            0.001217     0.000450     NO 
 RMS     Force            0.000222     0.000300     YES
 Maximum Displacement     0.004601     0.001800     NO 
 RMS     Displacement     0.001284     0.001200     NO 
 Predicted change in Energy=-4.138906D-06
 GradGradGradGradGradGradGradGradGradGradGradGradGradGradGradGradGradGrad

                          Input orientation:                          
 ---------------------------------------------------------------------
 Center     Atomic      Atomic             Coordinates (Angstroms)
 Number     Number       Type             X           Y           Z
 ---------------------------------------------------------------------
      1          6           0       -2.446524   -0.000042   -0.010968
      2          6           0       -0.942306   -0.000244    0.010468
      3          6           0       -0.228876    1.195485    0.007917
      4          6           0        1.158659    1.198810   -0.002317
      5          6           0        1.858353    0.000199   -0.008484
      6          6           0        1.159083   -1.198539   -0.002341
      7          6           0       -0.228569   -1.195656    0.007888
      8          1           0       -2.847486    0.878318    0.494141
      9          1           0       -2.817237    0.011583   -1.038401
     10          1           0       -2.847537   -0.889321    0.474497
     11          1           0       -0.768885    2.135371    0.016609
     12          1           0        1.694509    2.139490   -0.001926
     13          1           0        2.940511    0.000382   -0.013367
     14          1           0        1.695198   -2.139066   -0.001971
     15          1           0       -0.768233   -2.135719    0.016546
 ---------------------------------------------------------------------
                    Distance matrix (angstroms):
                    1          2          3          4          5
     1  C    0.000000
     2  C    1.504371   0.000000
     3  C    2.519446   1.392393   0.000000
     4  C    3.799299   2.419080   1.387577   0.000000
     5  C    4.304877   2.800722   2.405307   1.387904   0.000000
     6  C    3.799588   2.419072   2.767289   2.397350   1.387800
     7  C    2.519757   1.392277   2.391141   2.767305   2.405323
     8  H    1.089689   2.153027   2.682187   4.049492   4.813381
     9  H    1.092330   2.148403   3.032495   4.276767   4.787693
    10  H    1.089635   2.153065   3.379571   4.542825   4.813514
    11  H    2.715736   2.142654   1.084007   2.143113   3.385553
    12  H    4.661098   3.395792   2.142580   1.082595   2.145566
    13  H    5.387036   3.882890   3.387291   2.147405   1.082170
    14  H    4.661477   3.395753   3.849856   3.380724   2.145488
    15  H    2.716346   2.142567   3.374597   3.851280   3.385517
                    6          7          8          9         10
     6  C    0.000000
     7  C    1.387692   0.000000
     8  H    4.540091   3.375876   0.000000
     9  H    4.283566   3.041932   1.760918   0.000000
    10  H    4.046726   2.677790   1.767748   1.761081   0.000000
    11  H    3.851283   3.374575   2.475641   3.133571   3.698543
    12  H    3.380698   3.849873   4.739868   5.094912   5.480042
    13  H    2.147329   3.387334   5.876159   5.848290   5.876316
    14  H    1.082594   2.142662   5.476012   5.105052   4.735539
    15  H    2.143177   1.083989   3.692670   3.149958   2.467131
                   11         12         13         14         15
    11  H    0.000000
    12  H    2.463467   0.000000
    13  H    4.280035   2.475568   0.000000
    14  H    4.933849   4.278556   2.475515   0.000000
    15  H    4.271090   4.933848   4.280024   2.463503   0.000000
 Stoichiometry    C7H8
 Framework group  C1[X(C7H8)]
 Deg. of freedom    39
 Full point group                 C1      NOp   1
 Largest Abelian subgroup         C1      NOp   1
 Largest concise Abelian subgroup C1      NOp   1
                         Standard orientation:                         
 ---------------------------------------------------------------------
 Center     Atomic      Atomic             Coordinates (Angstroms)
 Number     Number       Type             X           Y           Z
 ---------------------------------------------------------------------
      1          6           0       -2.411723    0.000098    0.009168
      2          6           0       -0.907496    0.000279   -0.011655
      3          6           0       -0.194084   -1.195460   -0.008801
      4          6           0        1.193447   -1.198805    0.001998
      5          6           0        1.893154   -0.000203    0.008437
      6          6           0        1.193903    1.198545    0.001995
      7          6           0       -0.193744    1.195681   -0.008797
      8          1           0       -2.812492   -0.878262   -0.496094
      9          1           0       -2.782855   -0.011511    1.036451
     10          1           0       -2.812527    0.889377   -0.476469
     11          1           0       -0.734103   -2.135339   -0.017702
     12          1           0        1.729284   -2.139491    0.001835
     13          1           0        2.975311   -0.000401    0.013759
     14          1           0        1.730032    2.139065    0.001834
     15          1           0       -0.733392    2.135751   -0.017685
 ---------------------------------------------------------------------
 Rotational constants (GHZ):           5.5937827           2.5394345           1.7656544
 Standard basis: def2TZVP (5D, 7F)
 There are   300 symmetry adapted cartesian basis functions of A   symmetry.
 There are   265 symmetry adapted basis functions of A   symmetry.
   265 basis functions,   421 primitive gaussians,   300 cartesian basis functions
    25 alpha electrons       25 beta electrons
       nuclear repulsion energy       270.1864024512 Hartrees.
 NAtoms=   15 NActive=   15 NUniq=   15 SFac= 1.00D+00 NAtFMM=   60 NAOKFM=F Big=F
 Integral buffers will be    131072 words long.
 Raffenetti 2 integral format.
 Two-electron integral symmetry is turned on.
 One-electron integrals computed using PRISM.
   1 Symmetry operations used in ECPInt.
 ECPInt:  NShTT=    5995 NPrTT=   17944 LenC2=    5920 LenP2D=   14592.
 LDataN:  DoStor=T MaxTD1= 6 Len=  172
 NBasis=   265 RedAO= T EigKep=  8.36D-06  NBF=   265
 NBsUse=   265 1.00D-06 EigRej= -1.00D+00 NBFU=   265
 Initial guess from the checkpoint file:  "/home/svss/projects/Project-Philicity/GS/hydrocarbon/set-1/GS/mol_12_hc/mol_12_hc.chk"
 B after Tr=    -0.000000   -0.000000   -0.000000
         Rot=    1.000000    0.000002    0.000009   -0.000004 Ang=   0.00 deg.
 Requested convergence on RMS density matrix=1.00D-08 within 128 cycles.
 Requested convergence on MAX density matrix=1.00D-06.
 Requested convergence on             energy=1.00D-06.
 No special actions if energy rises.
 SCF Done:  E(RM062X) =  -271.535022560     A.U. after    7 cycles
            NFock=  7  Conv=0.75D-08     -V/T= 2.0051
   1 Symmetry operations used in ECPInt.
 ECPInt:  NShTT=    5995 NPrTT=   17944 LenC2=    5920 LenP2D=   14592.
 LDataN:  DoStor=T MaxTD1= 7 Len=  274
 Calling FoFJK, ICntrl=      2127 FMM=F ISym2X=0 I1Cent= 0 IOpClX= 0 NMat=1 NMatS=1 NMatT=0.
 ***** Axes restored to original set *****
 -------------------------------------------------------------------
 Center     Atomic                   Forces (Hartrees/Bohr)
 Number     Number              X              Y              Z
 -------------------------------------------------------------------
      1        6           0.000276392    0.000002290   -0.000081398
      2        6          -0.000181708   -0.000000742    0.000020800
      3        6           0.000037963   -0.000027063   -0.000005763
      4        6           0.000015033   -0.000031682   -0.000016179
      5        6          -0.000023856   -0.000002668    0.000026115
      6        6           0.000018660    0.000034386   -0.000016318
      7        6           0.000035076    0.000028017   -0.000007209
      8        1          -0.000054952   -0.000003929    0.000019093
      9        1          -0.000038648   -0.000001689    0.000027178
     10        1          -0.000055354    0.000003143    0.000020244
     11        1           0.000011143   -0.000015266    0.000008163
     12        1          -0.000018221   -0.000012650    0.000003610
     13        1          -0.000013554   -0.000000072   -0.000010375
     14        1          -0.000018330    0.000012392    0.000003788
     15        1           0.000010357    0.000015534    0.000008250
 -------------------------------------------------------------------
 Cartesian Forces:  Max     0.000276392 RMS     0.000055087

 GradGradGradGradGradGradGradGradGradGradGradGradGradGradGradGradGradGrad
 Berny optimization.
 Using GEDIIS/GDIIS optimizer.
 FormGI is forming the generalized inverse of G from B-inverse, IUseBI=4.
 Internal  Forces:  Max     0.000127200 RMS     0.000026362
 Search for a local minimum.
 Step number   3 out of a maximum of   79
 All quantities printed in internal units (Hartrees-Bohrs-Radians)
 Mixed Optimization -- En-DIIS/RFO-DIIS
 Swapping is turned off.
 Update second derivatives using D2CorX and points    1    2    3
 DE= -4.42D-06 DEPred=-4.14D-06 R= 1.07D+00
 TightC=F SS=  1.41D+00  RLast= 6.29D-03 DXNew= 5.0454D-01 1.8872D-02
 Trust test= 1.07D+00 RLast= 6.29D-03 DXMaxT set to 3.00D-01
 ITU=  1  1  0
     Eigenvalues ---    0.00779   0.01648   0.02229   0.02265   0.02267
     Eigenvalues ---    0.02290   0.02291   0.02302   0.02302   0.02314
     Eigenvalues ---    0.07081   0.07296   0.15271   0.15994   0.16000
     Eigenvalues ---    0.16000   0.16000   0.16000   0.16000   0.16327
     Eigenvalues ---    0.22000   0.22029   0.23938   0.24994   0.32390
     Eigenvalues ---    0.34721   0.34814   0.35084   0.35723   0.35862
     Eigenvalues ---    0.35929   0.35931   0.36001   0.43466   0.43788
     Eigenvalues ---    0.47652   0.47879   0.48365   0.51473
 En-DIIS/RFO-DIIS/Sim-DIIS IScMMF=       -3 using points:     3    2
 RFO step:  Lambda=-2.42463169D-07.
 DidBck=F Rises=F RFO-DIIS coefs:    1.05865   -0.05865
 Iteration  1 RMS(Cart)=  0.00015802 RMS(Int)=  0.00000004
 Iteration  2 RMS(Cart)=  0.00000004 RMS(Int)=  0.00000002
 Variable       Old X    -DE/DX   Delta X   Delta X   Delta X     New X
                                 (Linear)    (Quad)   (Total)
    R1        2.84285  -0.00013  -0.00019  -0.00029  -0.00048   2.84237
    R2        2.05921   0.00003   0.00002   0.00007   0.00010   2.05931
    R3        2.06420  -0.00001  -0.00001  -0.00002  -0.00004   2.06417
    R4        2.05911   0.00003   0.00002   0.00007   0.00010   2.05921
    R5        2.63124  -0.00002  -0.00005   0.00000  -0.00005   2.63119
    R6        2.63102  -0.00002  -0.00005   0.00000  -0.00005   2.63097
    R7        2.62214  -0.00002  -0.00007   0.00001  -0.00006   2.62208
    R8        2.04848  -0.00002  -0.00000  -0.00004  -0.00005   2.04843
    R9        2.62276  -0.00005  -0.00002  -0.00009  -0.00011   2.62264
   R10        2.04581  -0.00002  -0.00002  -0.00004  -0.00006   2.04575
   R11        2.62256  -0.00005  -0.00003  -0.00010  -0.00012   2.62244
   R12        2.04500  -0.00001  -0.00002  -0.00002  -0.00004   2.04496
   R13        2.62236  -0.00002  -0.00007   0.00001  -0.00006   2.62230
   R14        2.04581  -0.00002  -0.00002  -0.00004  -0.00006   2.04575
   R15        2.04844  -0.00002  -0.00000  -0.00004  -0.00005   2.04840
    A1        1.94059   0.00004  -0.00001   0.00029   0.00028   1.94087
    A2        1.93130   0.00005   0.00001   0.00040   0.00042   1.93172
    A3        1.94070   0.00004  -0.00002   0.00029   0.00027   1.94098
    A4        1.87815  -0.00004   0.00003  -0.00025  -0.00022   1.87793
    A5        1.89222  -0.00006  -0.00003  -0.00053  -0.00056   1.89166
    A6        1.87847  -0.00004   0.00002  -0.00026  -0.00024   1.87824
    A7        2.10852   0.00003  -0.00002   0.00013   0.00011   2.10863
    A8        2.10910   0.00002  -0.00002   0.00012   0.00010   2.10919
    A9        2.06538  -0.00005   0.00004  -0.00025  -0.00021   2.06517
   A10        2.11114   0.00002  -0.00002   0.00013   0.00012   2.11126
   A11        2.08211  -0.00001   0.00003  -0.00007  -0.00004   2.08207
   A12        2.08993  -0.00001  -0.00001  -0.00007  -0.00008   2.08985
   A13        2.09680   0.00001  -0.00001   0.00004   0.00003   2.09683
   A14        2.09097  -0.00001  -0.00003  -0.00007  -0.00010   2.09087
   A15        2.09540   0.00001   0.00004   0.00002   0.00007   2.09547
   A16        2.08509  -0.00001   0.00002  -0.00010  -0.00008   2.08501
   A17        2.09903   0.00001  -0.00001   0.00005   0.00004   2.09907
   A18        2.09906   0.00001  -0.00001   0.00005   0.00004   2.09910
   A19        2.09681   0.00001  -0.00001   0.00004   0.00003   2.09684
   A20        2.09543   0.00001   0.00004   0.00003   0.00007   2.09550
   A21        2.09094  -0.00001  -0.00003  -0.00007  -0.00010   2.09084
   A22        2.11113   0.00002  -0.00002   0.00014   0.00012   2.11125
   A23        2.08216  -0.00001   0.00003  -0.00007  -0.00004   2.08212
   A24        2.08989  -0.00001  -0.00001  -0.00006  -0.00007   2.08982
    D1       -0.53737  -0.00001   0.00001  -0.00019  -0.00018  -0.53755
    D2        2.62552  -0.00001  -0.00006   0.00009   0.00003   2.62555
    D3        1.54884  -0.00000   0.00004  -0.00005  -0.00000   1.54884
    D4       -1.57145   0.00000  -0.00003   0.00023   0.00020  -1.57125
    D5       -2.64766   0.00001   0.00007   0.00008   0.00015  -2.64751
    D6        0.51523   0.00001  -0.00000   0.00036   0.00036   0.51559
    D7       -3.11641   0.00000  -0.00007   0.00032   0.00025  -3.11616
    D8        0.02791   0.00001  -0.00001   0.00037   0.00036   0.02827
    D9        0.00441   0.00000  -0.00000   0.00005   0.00005   0.00446
   D10       -3.13446   0.00000   0.00006   0.00011   0.00016  -3.13430
   D11        3.11641  -0.00000   0.00007  -0.00032  -0.00025   3.11616
   D12       -0.02790  -0.00001   0.00001  -0.00037  -0.00036  -0.02826
   D13       -0.00440  -0.00000   0.00000  -0.00005  -0.00005  -0.00445
   D14        3.13447  -0.00000  -0.00006  -0.00011  -0.00016   3.13431
   D15       -0.00143  -0.00000   0.00003  -0.00012  -0.00008  -0.00152
   D16       -3.13924   0.00000  -0.00001   0.00007   0.00006  -3.13918
   D17        3.13743  -0.00000  -0.00002  -0.00018  -0.00020   3.13723
   D18       -0.00038  -0.00000  -0.00007   0.00001  -0.00006  -0.00044
   D19       -0.00165   0.00000  -0.00007   0.00019   0.00012  -0.00153
   D20       -3.13827  -0.00000  -0.00008  -0.00008  -0.00016  -3.13843
   D21        3.13615  -0.00000  -0.00002   0.00000  -0.00002   3.13613
   D22       -0.00048  -0.00001  -0.00004  -0.00026  -0.00030  -0.00078
   D23        0.00165  -0.00000   0.00007  -0.00019  -0.00012   0.00153
   D24       -3.13615   0.00000   0.00002   0.00000   0.00002  -3.13613
   D25        3.13828   0.00000   0.00008   0.00007   0.00016   3.13844
   D26        0.00047   0.00001   0.00004   0.00026   0.00030   0.00078
   D27        0.00142   0.00000  -0.00003   0.00012   0.00009   0.00151
   D28       -3.13744   0.00000   0.00002   0.00018   0.00020  -3.13725
   D29        3.13924  -0.00000   0.00001  -0.00006  -0.00006   3.13918
   D30        0.00037   0.00000   0.00007  -0.00001   0.00005   0.00043
         Item               Value     Threshold  Converged?
 Maximum Force            0.000127     0.000450     YES
 RMS     Force            0.000026     0.000300     YES
 Maximum Displacement     0.000460     0.001800     YES
 RMS     Displacement     0.000158     0.001200     YES
 Predicted change in Energy=-1.212336D-07
 Optimization completed.
    -- Stationary point found.
                           ----------------------------
                           !   Optimized Parameters   !
                           ! (Angstroms and Degrees)  !
 --------------------------                            --------------------------
 ! Name  Definition              Value          Derivative Info.                !
 --------------------------------------------------------------------------------
 ! R1    R(1,2)                  1.5044         -DE/DX =   -0.0001              !
 ! R2    R(1,8)                  1.0897         -DE/DX =    0.0                 !
 ! R3    R(1,9)                  1.0923         -DE/DX =    0.0                 !
 ! R4    R(1,10)                 1.0896         -DE/DX =    0.0                 !
 ! R5    R(2,3)                  1.3924         -DE/DX =    0.0                 !
 ! R6    R(2,7)                  1.3923         -DE/DX =    0.0                 !
 ! R7    R(3,4)                  1.3876         -DE/DX =    0.0                 !
 ! R8    R(3,11)                 1.084          -DE/DX =    0.0                 !
 ! R9    R(4,5)                  1.3879         -DE/DX =   -0.0001              !
 ! R10   R(4,12)                 1.0826         -DE/DX =    0.0                 !
 ! R11   R(5,6)                  1.3878         -DE/DX =   -0.0001              !
 ! R12   R(5,13)                 1.0822         -DE/DX =    0.0                 !
 ! R13   R(6,7)                  1.3877         -DE/DX =    0.0                 !
 ! R14   R(6,14)                 1.0826         -DE/DX =    0.0                 !
 ! R15   R(7,15)                 1.084          -DE/DX =    0.0                 !
 ! A1    A(2,1,8)              111.1878         -DE/DX =    0.0                 !
 ! A2    A(2,1,9)              110.6555         -DE/DX =    0.0                 !
 ! A3    A(2,1,10)             111.1942         -DE/DX =    0.0                 !
 ! A4    A(8,1,9)              107.6102         -DE/DX =    0.0                 !
 ! A5    A(8,1,10)             108.416          -DE/DX =   -0.0001              !
 ! A6    A(9,1,10)             107.6286         -DE/DX =    0.0                 !
 ! A7    A(1,2,3)              120.8094         -DE/DX =    0.0                 !
 ! A8    A(1,2,7)              120.8423         -DE/DX =    0.0                 !
 ! A9    A(3,2,7)              118.3374         -DE/DX =   -0.0001              !
 ! A10   A(2,3,4)              120.9596         -DE/DX =    0.0                 !
 ! A11   A(2,3,11)             119.2962         -DE/DX =    0.0                 !
 ! A12   A(4,3,11)             119.7441         -DE/DX =    0.0                 !
 ! A13   A(3,4,5)              120.138          -DE/DX =    0.0                 !
 ! A14   A(3,4,12)             119.8039         -DE/DX =    0.0                 !
 ! A15   A(5,4,12)             120.0578         -DE/DX =    0.0                 !
 ! A16   A(4,5,6)              119.467          -DE/DX =    0.0                 !
 ! A17   A(4,5,13)             120.2653         -DE/DX =    0.0                 !
 ! A18   A(6,5,13)             120.267          -DE/DX =    0.0                 !
 ! A19   A(5,6,7)              120.1385         -DE/DX =    0.0                 !
 ! A20   A(5,6,14)             120.0593         -DE/DX =    0.0                 !
 ! A21   A(7,6,14)             119.8018         -DE/DX =    0.0                 !
 ! A22   A(2,7,6)              120.9589         -DE/DX =    0.0                 !
 ! A23   A(2,7,15)             119.2991         -DE/DX =    0.0                 !
 ! A24   A(6,7,15)             119.7418         -DE/DX =    0.0                 !
 ! D1    D(8,1,2,3)            -30.7889         -DE/DX =    0.0                 !
 ! D2    D(8,1,2,7)            150.4314         -DE/DX =    0.0                 !
 ! D3    D(9,1,2,3)             88.742          -DE/DX =    0.0                 !
 ! D4    D(9,1,2,7)            -90.0376         -DE/DX =    0.0                 !
 ! D5    D(10,1,2,3)          -151.6998         -DE/DX =    0.0                 !
 ! D6    D(10,1,2,7)            29.5206         -DE/DX =    0.0                 !
 ! D7    D(1,2,3,4)           -178.557          -DE/DX =    0.0                 !
 ! D8    D(1,2,3,11)             1.5989         -DE/DX =    0.0                 !
 ! D9    D(7,2,3,4)              0.2526         -DE/DX =    0.0                 !
 ! D10   D(7,2,3,11)          -179.5916         -DE/DX =    0.0                 !
 ! D11   D(1,2,7,6)            178.5569         -DE/DX =    0.0                 !
 ! D12   D(1,2,7,15)            -1.5987         -DE/DX =    0.0                 !
 ! D13   D(3,2,7,6)             -0.2523         -DE/DX =    0.0                 !
 ! D14   D(3,2,7,15)           179.5921         -DE/DX =    0.0                 !
 ! D15   D(2,3,4,5)             -0.082          -DE/DX =    0.0                 !
 ! D16   D(2,3,4,12)          -179.8652         -DE/DX =    0.0                 !
 ! D17   D(11,3,4,5)           179.7614         -DE/DX =    0.0                 !
 ! D18   D(11,3,4,12)           -0.0218         -DE/DX =    0.0                 !
 ! D19   D(3,4,5,6)             -0.0944         -DE/DX =    0.0                 !
 ! D20   D(3,4,5,13)          -179.8099         -DE/DX =    0.0                 !
 ! D21   D(12,4,5,6)           179.6883         -DE/DX =    0.0                 !
 ! D22   D(12,4,5,13)           -0.0272         -DE/DX =    0.0                 !
 ! D23   D(4,5,6,7)              0.0947         -DE/DX =    0.0                 !
 ! D24   D(4,5,6,14)          -179.6884         -DE/DX =    0.0                 !
 ! D25   D(13,5,6,7)           179.8102         -DE/DX =    0.0                 !
 ! D26   D(13,5,6,14)            0.027          -DE/DX =    0.0                 !
 ! D27   D(5,6,7,2)              0.0814         -DE/DX =    0.0                 !
 ! D28   D(5,6,7,15)          -179.7623         -DE/DX =    0.0                 !
 ! D29   D(14,6,7,2)           179.8651         -DE/DX =    0.0                 !
 ! D30   D(14,6,7,15)            0.0214         -DE/DX =    0.0                 !
 --------------------------------------------------------------------------------
 GradGradGradGradGradGradGradGradGradGradGradGradGradGradGradGradGradGrad

                          Input orientation:                          
 ---------------------------------------------------------------------
 Center     Atomic      Atomic             Coordinates (Angstroms)
 Number     Number       Type             X           Y           Z
 ---------------------------------------------------------------------
      1          6           0       -2.446524   -0.000042   -0.010968
      2          6           0       -0.942306   -0.000244    0.010468
      3          6           0       -0.228876    1.195485    0.007917
      4          6           0        1.158659    1.198810   -0.002317
      5          6           0        1.858353    0.000199   -0.008484
      6          6           0        1.159083   -1.198539   -0.002341
      7          6           0       -0.228569   -1.195656    0.007888
      8          1           0       -2.847486    0.878318    0.494141
      9          1           0       -2.817237    0.011583   -1.038401
     10          1           0       -2.847537   -0.889321    0.474497
     11          1           0       -0.768885    2.135371    0.016609
     12          1           0        1.694509    2.139490   -0.001926
     13          1           0        2.940511    0.000382   -0.013367
     14          1           0        1.695198   -2.139066   -0.001971
     15          1           0       -0.768233   -2.135719    0.016546
 ---------------------------------------------------------------------
                    Distance matrix (angstroms):
                    1          2          3          4          5
     1  C    0.000000
     2  C    1.504371   0.000000
     3  C    2.519446   1.392393   0.000000
     4  C    3.799299   2.419080   1.387577   0.000000
     5  C    4.304877   2.800722   2.405307   1.387904   0.000000
     6  C    3.799588   2.419072   2.767289   2.397350   1.387800
     7  C    2.519757   1.392277   2.391141   2.767305   2.405323
     8  H    1.089689   2.153027   2.682187   4.049492   4.813381
     9  H    1.092330   2.148403   3.032495   4.276767   4.787693
    10  H    1.089635   2.153065   3.379571   4.542825   4.813514
    11  H    2.715736   2.142654   1.084007   2.143113   3.385553
    12  H    4.661098   3.395792   2.142580   1.082595   2.145566
    13  H    5.387036   3.882890   3.387291   2.147405   1.082170
    14  H    4.661477   3.395753   3.849856   3.380724   2.145488
    15  H    2.716346   2.142567   3.374597   3.851280   3.385517
                    6          7          8          9         10
     6  C    0.000000
     7  C    1.387692   0.000000
     8  H    4.540091   3.375876   0.000000
     9  H    4.283566   3.041932   1.760918   0.000000
    10  H    4.046726   2.677790   1.767748   1.761081   0.000000
    11  H    3.851283   3.374575   2.475641   3.133571   3.698543
[...]
 ! D29   D(14,6,7,2)           179.862          -DE/DX =    0.0                 !
 ! D30   D(14,6,7,15)            0.0241         -DE/DX =    0.0                 !
 --------------------------------------------------------------------------------
 GradGradGradGradGradGradGradGradGradGradGradGradGradGradGradGradGradGrad


 ----------------------------------------------------------------------

 Electric dipole moment (input orientation):
 (Debye = 10**-18 statcoulomb cm , SI units = C m)
                  (au)            (Debye)         (10**-30 SI)
   Tot        0.145621D+00      0.370131D+00      0.123462D+01
   x         -0.144897D+00     -0.368292D+00     -0.122849D+01
   y          0.559325D-03      0.142166D-02      0.474216D-02
   z         -0.144873D-01     -0.368230D-01     -0.122828D+00

 Dipole polarizability, Alpha (input orientation).
 (esu units = cm**3 , SI units = C**2 m**2 J**-1)
 Alpha(0;0):
               (au)            (10**-24 esu)      (10**-40 SI)
   iso        0.771418D+02      0.114312D+02      0.127190D+02
   aniso      0.448101D+02      0.664018D+01      0.738819D+01
   xx         0.980496D+02      0.145294D+02      0.161662D+02
   yx        -0.195032D-01     -0.289007D-02     -0.321564D-02
   yy         0.851640D+02      0.126200D+02      0.140416D+02
   zx         0.314812D+00      0.466503D-01      0.519055D-01
   zy         0.605655D-03      0.897488D-04      0.998590D-04
   zz         0.482118D+02      0.714426D+01      0.794906D+01

 ----------------------------------------------------------------------

 Dipole orientation:
     6          0.43925263         -0.01962130          4.60235153
     6          0.19680704         -0.00809506          1.76988238
     6          0.06749672          2.25720912          0.43755217
     6         -0.21253602          2.27469566         -2.16953306
     6         -0.36526862          0.01534166         -3.49273264
     6         -0.23188758         -2.25556095         -2.18772578
     6          0.04820629         -2.26131559          0.41962527
     1          1.47144097          1.63332944          5.26770859
     1         -1.42289271          0.00683020          5.49266144
     1          1.42033635         -1.70682713          5.25866849
     1          0.19288413          4.02891316          1.45814006
     1         -0.30498139          4.05658770         -3.17035662
     1         -0.57786174          0.02440222         -5.52663688
     1         -0.33951052         -4.02857314         -3.20269894
     1          0.15838846         -4.04213974          1.42592472

 Electric dipole moment (dipole orientation):
 (Debye = 10**-18 statcoulomb cm , SI units = C m)
                  (au)            (Debye)         (10**-30 SI)
   Tot        0.145621D+00      0.370131D+00      0.123462D+01
   x          0.000000D+00      0.000000D+00      0.000000D+00
   y          0.000000D+00      0.000000D+00      0.000000D+00
   z          0.145621D+00      0.370131D+00      0.123462D+01

 Dipole polarizability, Alpha (dipole orientation).
 (esu units = cm**3 , SI units = C**2 m**2 J**-1)
 Alpha(0;0):
               (au)            (10**-24 esu)      (10**-40 SI)
   iso        0.771418D+02      0.114312D+02      0.127190D+02
   aniso      0.448101D+02      0.664018D+01      0.738819D+01
   xx         0.486433D+02      0.720820D+01      0.802020D+01
   yx         0.139779D+00      0.207131D-01      0.230464D-01
   yy         0.851635D+02      0.126199D+02      0.140416D+02
   zx         0.462485D+01      0.685332D+00      0.762534D+00
   zy        -0.481211D-01     -0.713081D-02     -0.793410D-02
   zz         0.976186D+02      0.144656D+02      0.160951D+02

 ----------------------------------------------------------------------
 Unable to Open any file for archive entry.
 1\1\GINC-NODE12\Freq\RM062X\def2TZVP\C7H8\SVSS\20-Jun-2022\0\\#N Geom=
 AllCheck Guess=TCheck SCRF=Check GenChk RM062X/def2TZVP Freq\\converte
 d from /home/svss/projects/Project-Philicity/GS/hydrocarbon/set-1/GS/m
 ol_12_hc/mol_12_hc_cregen_best.xyz\\0,1\C,-2.4465241135,-0.0000419325,
 -0.0109675859\C,-0.9423055913,-0.0002442631,0.0104677078\C,-0.22887561
 81,1.1954849954,0.0079170223\C,1.1586593255,1.1988103586,-0.0023167812
 \C,1.8583525803,0.0001988031,-0.0084844966\C,1.1590828133,-1.198539366
 7,-0.0023405373\C,-0.2285689641,-1.1956558958,0.0078876122\H,-2.847485
 7569,0.8783181604,0.4941410653\H,-2.8172373851,0.0115827977,-1.0384014
 45\H,-2.8475373321,-0.8893207738,0.4744970032\H,-0.7688851237,2.135371
 0453,0.0166086345\H,1.6945089767,2.1394897203,-0.0019262106\H,2.940511
 4543,0.0003818841,-0.0133666192\H,1.6951978851,-2.1390663358,-0.001971
 2352\H,-0.7682331505,-2.1357191972,0.0165458656\\Version=AS64L-G16RevC
 .01\State=1-A\HF=-271.5350226\RMSD=2.708e-09\RMSF=5.506e-05\ZeroPoint=
 0.1286558\Thermal=0.1348517\ETot=-271.4001709\HTot=-271.3992267\GTot=-
 271.4370606\Dipole=-0.1448973,0.0005593,-0.0144873\DipoleDeriv=-0.0430
 764,0.0004242,-0.0068117,0.0031096,0.0942099,-0.0000117,-0.1110742,0.0
 001153,0.1002008,0.3817898,-0.0006433,0.0247309,-0.0011183,-0.0810627,
 -0.0000227,0.073984,-0.0000493,-0.0857901,-0.1578384,-0.0538095,-0.005
 7857,-0.1221966,0.0436224,-0.0045563,-0.0070283,0.0011744,-0.1321768,0
 .0099343,0.0369695,0.000655,0.047486,0.0716241,0.0039894,-0.0043195,0.
 0029628,-0.1342006,0.0343313,0.0000007,-0.0030064,-0.0004707,-0.104278
 9,0.0000064,-0.003142,-0.000001,-0.1481064,0.0106861,-0.0371177,0.0006
 388,-0.0472883,0.0715519,-0.0039914,-0.0043276,-0.0029513,-0.1341095,-
 0.1579688,0.0539981,-0.0057716,0.1221873,0.0432218,0.0045256,-0.006999
 9,-0.0011857,-0.1322092,-0.0052329,0.0046278,0.005074,0.0760298,-0.050
 7032,-0.0690051,0.0583594,-0.0641637,0.03838,-0.0535214,0.0001443,-0.0
 226451,0.0004036,0.0810988,0.001879,-0.0694966,0.0017202,-0.071717,-0.
 004102,-0.0044802,0.0046796,-0.0781794,-0.0539748,0.0671887,0.0566023,
 0.0623835,0.040911,0.0161867,0.0807558,0.0026371,0.0683979,-0.0424757,
 -0.0005068,0.0056785,-0.0044687,0.1265942,0.020869,-0.0638539,0.000802
 1,-0.0688004,-0.0480508,-0.0002513,0.0022082,-0.0021213,0.1332604,-0.0
 88926,-0.0000172,0.0013422,-0.0000262,0.0656693,-0.0000008,0.0016828,0
 .0000018,0.1389716,0.0208308,0.0638456,0.0008042,0.0688222,-0.0479947,
 0.0002473,0.0022136,0.0021191,0.1332779,0.0160378,-0.0808442,0.0026568
 ,-0.0683566,-0.0424576,0.0005096,0.0056592,0.004464,0.1267137\Polar=98
 .0495809,-0.0195032,85.1639506,0.3148119,0.0006057,48.2118374\Quadrupo
 le=2.0611937,1.7975863,-3.85878,-0.0016575,0.0246114,0.0001448\PG=C01 
 [X(C7H8)]\NImag=0\\0.49469514,0.00026499,0.59181395,-0.01054221,0.0000
 5988,0.54612338,-0.22313622,-0.00012769,0.00193197,0.66059234,0.000083
 60,-0.08880683,0.00000137,-0.00024902,0.67655428,-0.00226590,-0.000011
 06,-0.07078478,0.00208199,0.00000456,0.17914425,-0.02236266,-0.0298375
 2,0.00063090,-0.17778462,-0.04301947,0.00030036,0.70533324,-0.00386542
 ,0.00335601,-0.00036631,-0.12425663,-0.27549704,0.00053373,-0.03524971
 ,0.71915265,-0.00008580,-0.00125680,0.00484336,0.00034897,-0.00151938,
 -0.07058243,-0.00357937,0.00293862,0.13791493,0.00241884,-0.00182360,0
 .00113023,-0.02644124,-0.09068998,0.00029698,-0.34496649,0.03845097,0.
 00147921,0.69544843,-0.00141900,-0.00464490,0.00053169,-0.02901929,0.0
 4335458,-0.00059048,-0.03935285,-0.13260692,0.00050501,0.03276853,0.73
 615121,0.00044806,-0.00119151,0.00686886,-0.00017834,0.00075094,0.0071
 5882,0.00182536,-0.00038575,-0.06335609,-0.00352986,0.00140618,0.13820
 265,-0.00116814,0.00004039,-0.00102054,0.00164930,0.00000256,0.0004312
 2,-0.02750102,0.02864724,0.00032225,-0.18602326,0.13072433,0.00077146,
 0.75829061,0.00005878,-0.00050821,0.00000590,-0.00003802,-0.08659827,-
 0.00000270,0.08879691,0.04136479,-0.00137066,0.05331976,-0.28900833,-0
 .00075299,0.00012286,0.67277948,0.00018873,-0.00000119,-0.00100353,-0.
 00036195,-0.00000037,-0.00773974,0.00045117,-0.00004619,0.00837493,0.0
 0054863,-0.00105128,-0.06419899,-0.00356160,0.00000395,0.13534015,0.00
 230183,0.00175667,0.00111960,-0.02637968,0.09068095,0.00030357,-0.0624
 3612,-0.03425984,0.00104283,0.07516690,-0.03013080,-0.00035346,-0.1860
 4835,-0.05339883,0.00054836,0.69528524,0.00136164,-0.00459651,-0.00053
 835,0.02904261,0.04334755,0.00059376,-0.03579312,-0.02204195,0.0005632
 0,0.03017358,-0.06209766,-0.00026221,-0.13080260,-0.28925604,0.0010481
 8,-0.03266280,0.73631751,0.00044781,0.00119116,0.00696118,-0.00017778,
 -0.00074882,0.00715924,0.00044979,0.00033332,-0.00804508,-0.00035198,0
 .00026050,0.00855499,0.00076934,0.00075101,-0.06420432,-0.00352711,-0.
 00139607,0.13822512,-0.02224596,0.02977814,0.00064252,-0.17801748,0.04
 314758,0.00029832,0.07300501,0.02852618,-0.00135492,-0.06247934,0.0357
 9117,0.00045136,-0.02745335,-0.08884051,0.00044931,-0.34466598,0.03928
 832,0.00182308,0.70503848,0.00380512,0.00330174,0.00036382,0.12449703,
 -0.27563915,-0.00053729,-0.02844657,-0.06063239,0.00068120,0.03422342,
 -0.02200982,-0.00033416,-0.02867371,0.04130804,0.00004727,-0.03850891,
 -0.13259836,0.00038430,0.03515975,0.71947256,-0.00008650,0.00125731,0.
 00492618,0.00034977,0.00151237,-0.07052154,-0.00135357,-0.00068117,0.0
 1030186,0.00104291,-0.00056312,-0.00805420,0.00032136,0.00136949,0.008
 38002,0.00147361,-0.00050507,-0.06341399,-0.00357332,-0.00292273,0.137
 92674,-0.08043156,0.07610063,0.04624575,-0.01283975,0.02804101,0.01521
 697,0.00181899,0.00181835,-0.00066650,-0.00011563,0.00008736,-0.000385
 93,-0.00006541,-0.00020863,0.00014157,-0.00013634,0.00137786,-0.000909
 43,-0.00558407,-0.00180186,0.00037856,0.09038267,0.07847820,-0.2260911
 8,-0.10288901,0.00014333,0.00008939,0.00182109,-0.00201581,0.00046263,
 0.00044186,0.00065183,0.00009985,0.00059553,-0.00018821,0.00038230,0.0
 0004585,-0.00021024,-0.00012814,0.00000298,0.00054811,0.00031570,-0.00
 052255,-0.08575046,0.24239675,0.04796808,-0.10329887,-0.10521356,-0.00
 240518,0.00272378,0.00004704,-0.00038854,-0.00029864,0.00052533,0.0003
 3173,-0.00006541,-0.00005693,0.00014019,0.00055943,0.00000893,-0.00089
 304,-0.00013570,0.00007475,-0.00007935,0.00008566,0.00057532,-0.049472
 93,0.11351331,0.11038758,-0.07186725,0.00093402,-0.08441090,-0.0145714
 0,0.00038352,-0.03126824,-0.00040869,0.00115577,0.00055820,-0.00034987
 ,0.00020139,0.00150940,-0.00043122,0.00000615,-0.00020976,-0.00036722,
 -0.00018894,0.00152154,-0.00049490,-0.00117186,0.00053672,0.00347211,-
 0.00112207,0.01133716,0.08169330,0.00089383,-0.04516208,0.00270768,0.0
 0004714,0.00003247,-0.00002525,-0.00204685,-0.00037924,0.00049580,0.00
 130131,-0.00069184,0.00038969,-0.00001008,0.00134929,-0.00000094,-0.00
 127251,-0.00069247,-0.00041117,0.00203491,-0.00038577,-0.00050479,-0.0
 0933726,0.00105934,-0.02575773,-0.00105821,0.04464601,-0.08077987,0.00
 271784,-0.28390006,-0.00138180,-0.00003309,0.00333350,0.00032497,0.000
 58933,0.00040546,-0.00047712,0.00000718,0.00007584,0.00032213,-0.00000
 691,-0.00004309,-0.00046118,-0.00000866,0.00005905,0.00032107,-0.00058
 985,0.00036132,-0.00421114,0.00085778,-0.01387013,0.09068523,-0.002975
 34,0.30745495,-0.08050423,-0.07710977,0.04445590,-0.01276736,-0.028374
 52,0.01462809,-0.00567300,0.00180054,0.00037432,-0.00011733,-0.0014120
 1,-0.00087622,-0.00005557,0.00022433,0.00013674,-0.00012324,-0.0000803
 3,-0.00036498,0.00183849,-0.00184757,-0.00064709,0.00390809,0.00936902
 ,-0.00679819,0.00347314,0.00944011,-0.00399748,0.09044411,-0.07964015,
 -0.23070306,0.10012498,-0.00005629,0.00013088,-0.00178591,-0.00051608,
 0.00033262,0.00052498,0.00021957,-0.00011953,0.00000797,0.00017536,0.0
 0036923,-0.00004436,-0.00062187,0.00011343,-0.00058527,0.00201619,0.00
 047957,-0.00043713,-0.00922201,-0.01926934,0.01247498,0.00087438,0.000
 50373,-0.00054825,0.08686715,0.24746464,0.04619318,0.10053156,-0.10081
 958,-0.00238557,-0.00268804,-0.00008816,-0.00007261,-0.00007506,0.0006
 2813,-0.00088905,0.00013674,0.00009952,0.00014233,-0.00055481,0.000010
 84,0.00032413,0.00006829,-0.00006858,-0.00038199,0.00028857,0.00049268
 ,-0.00700268,-0.01307266,0.00762755,0.01136856,0.02605076,-0.01326972,
 -0.04754958,-0.11049662,0.10549727,0.00128853,-0.00096269,-0.00026590,
 0.01007268,-0.01351046,0.00004126,-0.12778430,0.12058348,0.00147283,-0
 .01053504,0.02903074,0.00006534,-0.00569518,-0.00127658,0.00009497,-0.
 00082457,-0.00086048,-0.00001404,-0.00081166,-0.00350387,0.00008342,0.
 00002229,0.00011692,0.00032903,0.00003336,-0.00002891,-0.00012827,-0.0
 0002592,0.00015563,-0.00004086,0.13329711,0.00157349,0.00092493,-0.000
 46527,0.01607872,-0.01961709,-0.00028436,0.12009642,-0.26959690,-0.002
 05921,-0.00199757,0.00360745,0.00007004,-0.00040188,0.00200695,-0.0000
 5987,-0.00110260,0.00013136,0.00000390,-0.00392680,-0.00334344,-0.0000
 4843,-0.00104748,0.00023751,0.00031125,-0.00031891,-0.00013320,0.00004
 069,-0.00003313,0.00039971,0.00014052,-0.13006278,0.28577339,-0.000519
 27,0.00090019,-0.00350486,0.00075117,0.00004044,0.00407943,0.00135928,
 -0.00239921,-0.03748384,-0.00000663,-0.00020852,0.00286216,0.00011184,
 -0.00004508,0.00761192,0.00006686,0.00004244,-0.00057917,-0.00005075,0
 .00017706,0.00657024,0.00034694,-0.00053985,0.00001770,-0.00068824,-0.
 00027559,-0.00029101,0.00027608,0.00004792,-0.00003866,-0.00158096,0.0
 0229390,0.02567823,-0.00015486,-0.00137031,0.00013663,-0.00552314,0.00
 111056,-0.00003285,-0.01008499,-0.02904951,-0.00006370,-0.12919915,-0.
 12193005,0.00018317,0.01206171,0.01480706,0.00000359,-0.00068994,0.003
 38854,0.00003456,-0.00098880,0.00103121,0.00003087,0.00002836,0.000046
 05,0.00002691,-0.00010986,-0.00000723,-0.00003851,-0.00045269,-0.00004
 764,-0.00003553,0.00100037,0.00043291,-0.00002134,0.13291020,0.0001511
 7,0.00000774,-0.00000898,0.00060224,0.00194914,-0.00000117,0.00198274,
 0.00362340,0.00001122,-0.12196960,-0.27387370,-0.00020409,-0.01615689,
 -0.01816228,0.00000335,0.00400011,-0.00333811,-0.00003948,0.00098843,0
 .00026919,-0.00002704,-0.00001773,0.00000038,-0.00000338,-0.00004502,-
 0.00002035,0.00000105,-0.00001325,-0.00000077,-0.00000773,-0.00040815,
 0.00069406,0.00001784,0.13152058,0.28893710,-0.00012594,0.00007692,0.0
 0002569,0.00027223,0.00012961,0.00778296,0.00004480,0.00008729,0.00309
 627,0.00018461,-0.00030056,-0.03762002,-0.00012047,-0.00006365,0.00323
 909,0.00000821,-0.00006548,0.00739966,0.00006312,-0.00002504,-0.000654
 81,0.00000573,-0.00004240,-0.00003353,-0.00003631,-0.00004733,0.000017
 88,-0.00003176,0.00000543,-0.00007889,-0.00004572,0.00003314,-0.004057
 08,-0.00018189,0.00021906,0.02598219,0.00001820,-0.00000222,0.00007744
 ,0.00064636,0.00000074,-0.00003844,0.00064033,0.00322437,0.00003762,-0
 .01129349,-0.00281256,0.00004888,-0.34392692,-0.00004735,0.00147255,-0
 .01128763,0.00280569,0.00004892,0.00064347,-0.00322292,0.00003763,0.00
 001426,0.00003667,-0.00001865,0.00001752,0.00000124,-0.00002144,0.0000
 1412,-0.00003594,-0.00001861,-0.00066764,-0.00018171,0.00001147,0.0007
 2668,0.00027395,-0.00002358,0.36439506,0.00000020,0.00019546,-0.000000
 05,-0.00000136,-0.00162490,-0.00000015,0.00246441,-0.00446035,-0.00003
 099,0.02826669,0.00504919,-0.00012493,-0.00004663,-0.05987158,-0.00000
 006,-0.02827400,0.00504097,0.00012482,-0.00246168,-0.00446248,0.000031
 09,-0.00008855,0.00004307,0.00002151,-0.00000100,0.00001293,-0.0000006
 5,0.00009006,0.00004351,-0.00002082,0.00141512,0.00003698,-0.00002457,
 -0.00063678,0.00095023,0.00001912,0.00005229,0.05805956,-0.00019633,0.
 00000037,-0.00097342,0.00013303,-0.00000015,-0.00084165,-0.00000554,-0
 .00007789,0.00746837,0.00016623,-0.00009117,0.00263387,0.00137862,-0.0
 0000022,-0.03662136,0.00016587,0.00009121,0.00263838,-0.00000582,0.000
 07785,0.00747993,0.00005768,-0.00014489,0.00000551,-0.00017975,0.00000
 433,-0.00007889,0.00005475,0.00014026,0.00000558,0.00004252,-0.0000080
 8,0.00017802,-0.00002603,0.00001798,-0.00397832,-0.00160164,0.00000016
 ,0.02588901,-0.00015633,0.00136324,0.00013669,-0.00552299,-0.00111033,
 -0.00003335,-0.00098729,-0.00103201,0.00003094,-0.00068700,-0.00338750
 ,0.00003464,0.01206191,-0.01479842,0.00000317,-0.12927104,0.12197687,0
 .00018549,-0.01008751,0.02904527,-0.00006252,-0.00044797,0.00004827,-0
 .00003533,-0.00011649,0.00000919,-0.00003756,0.00002903,-0.00004662,0.
 00002578,0.00006277,0.00010594,-0.00000795,0.00041379,-0.00081003,-0.0
 0000800,0.00072696,0.00063630,-0.00002601,0.13298280,-0.00015241,0.000
 00728,0.00000893,-0.00060393,0.00195034,0.00000082,-0.00098820,0.00026
 786,0.00002720,-0.00399960,-0.00333974,0.00003937,0.01616619,-0.018164
 80,-0.00000393,0.12201323,-0.27380262,0.00019866,-0.00198724,0.0036313
 7,-0.00001091,0.00001365,-0.00000141,0.00000796,0.00004477,-0.00002060
 ,-0.00000121,0.00001701,0.00000062,0.00000335,0.00009861,-0.00002107,-
 0.00000859,0.00081056,-0.00101490,-0.00001285,-0.00027392,0.00095054,-
 0.00001785,-0.13156699,0.28886376,-0.00012602,-0.00007619,0.00002505,0
 .00027224,-0.00013015,0.00776301,0.00006314,0.00002502,-0.00065527,0.0
 0000810,0.00006532,0.00740720,-0.00012011,0.00006305,0.00324545,0.0001
 8738,0.00029528,-0.03761831,0.00004423,-0.00008755,0.00310120,-0.00003
 279,-0.00000715,-0.00007338,-0.00003413,0.00004975,0.00001917,0.000004
 61,0.00004161,-0.00003478,-0.00000507,0.00001338,-0.00124254,-0.000007
 97,0.00001281,0.00011970,-0.00002362,-0.00001900,-0.00398509,-0.000184
 60,-0.00021317,0.02597937,0.00130467,0.00099572,-0.00026809,0.01002321
 ,0.01350324,0.00004002,-0.00080839,0.00350622,0.00008311,-0.00082632,0
 .00086055,-0.00001386,-0.00569510,0.00127247,0.00009452,-0.01052384,-0
 .02902682,0.00006478,-0.12769639,-0.12058453,0.00146814,-0.00002603,-0
 .00015160,-0.00004188,0.00002749,0.00003332,-0.00011903,0.00001237,-0.
 00012168,0.00032252,0.00056720,0.00078536,-0.00004850,0.00006232,-0.00
 009854,-0.00000502,-0.00066728,-0.00141508,0.00004243,0.00099937,0.000
 40827,-0.00004538,0.13324672,-0.00159406,0.00090566,0.00046372,-0.0160
 5884,-0.01962537,0.00028441,0.00392569,-0.00334517,0.00004795,0.001104
 68,0.00013017,-0.00000408,0.00040105,0.00200942,0.00005959,0.00199145,
 0.00360104,-0.00006983,-0.12006255,-0.26970677,0.00205266,0.00003511,0
 .00040315,-0.00013815,0.00030602,-0.00011822,-0.00004991,0.00106236,0.
 00025480,-0.00030406,-0.00078658,-0.00110063,-0.00001838,-0.00010593,-
 0.00002114,-0.00001326,0.00018167,0.00003686,0.00000808,-0.00043318,0.
 00069334,-0.00003302,0.13003310,0.28588285,-0.00051804,-0.00089964,-0.
 00357391,0.00074924,-0.00004309,0.00409006,-0.00005014,-0.00017708,0.0
 0656408,0.00006602,-0.00004209,-0.00057768,0.00011197,0.00004420,0.007
 59972,-0.00000562,0.00020918,0.00285707,0.00135313,0.00239090,-0.03747
 096,0.00028820,-0.00005989,-0.00002218,-0.00068947,0.00030014,-0.00027
 426,0.00033482,0.00052941,0.00003681,-0.00004854,0.00001840,0.00019946
 ,-0.00000790,0.00000856,-0.00124078,0.00001148,0.00002453,0.00018008,-
 0.00002139,-0.00001778,-0.00405076,-0.00157374,-0.00228574,0.02568325\
 \-0.00027622,-0.00000229,0.00008138,0.00018158,0.00000075,-0.00002075,
 -0.00003801,0.00002701,0.00000575,-0.00001492,0.00003171,0.00001618,0.
 00002389,0.00000268,-0.00002609,-0.00001856,-0.00003442,0.00001631,-0.
 00003511,-0.00002797,0.00000720,0.00005493,0.00000396,-0.00001907,0.00
 003863,0.00000169,-0.00002720,0.00005533,-0.00000318,-0.00002022,-0.00
 001117,0.00001531,-0.00000817,0.00001819,0.00001262,-0.00000362,0.0000
 1350,0.00000007,0.00001038,0.00001830,-0.00001236,-0.00000380,-0.00001
 038,-0.00001558,-0.00000826\\\@
 The archive entry for this job was punched.


 AND HERE I AM, FOR ALL MY LORE,
 THE WRETCHED FOOL I WAS BEFORE.
 CALLED MASTER OF ARTS, AND DOCTOR TO BOOT,
 FOR TEN YEARS ALMOST I CONFUTE
 AND UP AND DOWN, WHEREVER IT GOES
 I DRAG MY STUDENTS BY THE NOSE --
 AND SEE THAT FOR ALL OUR SCIENCE AND ART
 WE CAN KNOW NOTHING.  IT BURNS MY HEART.

                                       -- FAUST
 Job cpu time:       0 days  0 hours 44 minutes 32.1 seconds.
 Elapsed time:       0 days  0 hours  5 minutes 37.6 seconds.
 File lengths (MBytes):  RWF=    160 Int=      0 D2E=      0 Chk=      8 Scr=      2
 Normal termination of Gaussian 16 at Mon Jun 20 17:19:40 2022.
