Job Start Time: Fri Jul 29 15:01:52 MDT 2022
SLURM Job ID: 49073
SLURM Job Name: mol1
 Entering Gaussian System, Link 0=/opt/apps/Gaussian/G16C/g16/g16
 Initial command:
 /opt/apps/Gaussian/G16C/g16/l1.exe "/tmp/Gau-3504227.inp" -scrdir="/tmp/"
 Entering Link 1 = /opt/apps/Gaussian/G16C/g16/l1.exe PID=   3504228.
  
 Copyright (c) 1988-2019, Gaussian, Inc.  All Rights Reserved.
  
 This is part of the Gaussian(R) 16 program.  It is based on
 the Gaussian(R) 09 system (copyright 2009, Gaussian, Inc.),
 the Gaussian(R) 03 system (copyright 2003, Gaussian, Inc.),
 the Gaussian(R) 98 system (copyright 1998, Gaussian, Inc.),
 the Gaussian(R) 94 system (copyright 1995, Gaussian, Inc.),
 the Gaussian 92(TM) system (copyright 1992, Gaussian, Inc.),
 the Gaussian 90(TM) system (copyright 1990, Gaussian, Inc.),
 the Gaussian 88(TM) system (copyright 1988, Gaussian, Inc.),
 the Gaussian 86(TM) system (copyright 1986, Carnegie Mellon
 University), and the Gaussian 82(TM) system (copyright 1983,
 Carnegie Mellon University). Gaussian is a federally registered
 trademark of Gaussian, Inc.
  
 This software contains proprietary and confidential information,
 including trade secrets, belonging to Gaussian, Inc.
  
 This software is provided under written license and may be
 used, copied, transmitted, or stored only in accord with that
 written license.
  
 The following legend is applicable only to US Government
 contracts under FAR:
  
                    RESTRICTED RIGHTS LEGEND
  
 Use, reproduction and disclosure by the US Government is
 subject to restrictions as set forth in subparagraphs (a)
 and (c) of the Commercial Computer Software - Restricted
 Rights clause in FAR 52.227-19.
  
 Gaussian, Inc.
 340 Quinnipiac St., Bldg. 40, Wallingford CT 06492
  
  
 ---------------------------------------------------------------
 Warning -- This program may not be used in any manner that
 competes with the business of Gaussian, Inc. or will provide
 assistance to any competitor of Gaussian, Inc.  The licensee
 of this program is prohibited from giving any competitor of
 Gaussian, Inc. access to this program.  By using this program,
 the user acknowledges that Gaussian, Inc. is engaged in the
 business of creating and licensing software in the field of
 computational chemistry and represents and warrants to the
 licensee that it is not a competitor of Gaussian, Inc. and that
 it will not use this program in any manner prohibited above.
 ---------------------------------------------------------------
  

 Cite this work as:
 Gaussian 16, Revision C.01,
 M. J. Frisch, G. W. Trucks, H. B. Schlegel, G. E. Scuseria, 
 M. A. Robb, J. R. Cheeseman, G. Scalmani, V. Barone, 
 G. A. Petersson, H. Nakatsuji, X. Li, M. Caricato, A. V. Marenich, 
 J. Bloino, B. G. Janesko, R. Gomperts, B. Mennucci, H. P. Hratchian, 
 J. V. Ortiz, A. F. Izmaylov, J. L. Sonnenberg, D. Williams-Young, 
 F. Ding, F. Lipparini, F. Egidi, J. Goings, B. Peng, A. Petrone, 
 T. Henderson, D. Ranasinghe, V. G. Zakrzewski, J. Gao, N. Rega, 
 G. Zheng, W. Liang, M. Hada, M. Ehara, K. Toyota, R. Fukuda, 
 J. Hasegawa, M. Ishida, T. Nakajima, Y. Honda, O. Kitao, H. Nakai, 
 T. Vreven, K. Throssell, J. A. Montgomery, Jr., J. E. Peralta, 
 F. Ogliaro, M. J. Bearpark, J. J. Heyd, E. N. Brothers, K. N. Kudin, 
 V. N. Staroverov, T. A. Keith, R. Kobayashi, J. Normand, 
 K. Raghavachari, A. P. Rendell, J. C. Burant, S. S. Iyengar, 
 J. Tomasi, M. Cossi, J. M. Millam, M. Klene, C. Adamo, R. Cammi, 
 J. W. Ochterski, R. L. Martin, K. Morokuma, O. Farkas, 
 J. B. Foresman, and D. J. Fox, Gaussian, Inc., Wallingford CT, 2019.
 
 ******************************************
 Gaussian 16:  AS64L-G16RevC.01  3-Jul-2019
                29-Jul-2022 
 ******************************************
 %chk=mol1.chk
 %MEM=96GB
 %nprocshared=12
 Will use up to   12 processors via shared memory.
 ---------------------------------------------------------
 # opt freq M062X/Def2TZVP scrf=(SMD,solvent=water) nosymm
 ---------------------------------------------------------
 1/18=20,19=15,26=3,38=1/1,3;
 2/9=110,12=2,15=1,17=6,18=5,40=1/2;
 3/5=44,7=101,11=2,25=1,30=1,70=32201,71=1,72=1,74=-55/1,2,3;
 4//1;
 5/5=2,38=5,53=1/2;
 6/7=2,8=2,9=2,10=2,28=1/1;
 7/30=1/1,2,3,16;
 1/18=20,19=15,26=3/3(2);
 2/9=110,15=1/2;
 99//99;
 2/9=110,15=1/2;
 3/5=44,7=101,11=2,25=1,30=1,70=32205,71=1,72=1,74=-55/1,2,3;
 4/5=5,16=3,69=1/1;
 5/5=2,38=5,53=1/2;
 7/30=1/1,2,3,16;
 1/18=20,19=15,26=3/3(-5);
 2/9=110,15=1/2;
 6/7=2,8=2,9=2,10=2,19=2,28=1/1;
 99/9=1/99;
 ----
 mol1
 ----
 Symbolic Z-matrix:
 Charge =  0 Multiplicity = 1
 C                    -2.39757   0.18499   0.57013 
 C                    -1.61383  -0.18681  -0.69385 
 C                    -0.17048  -0.14572  -0.35185 
 C                     0.53151  -1.23      0.12442 
 C                     1.88528  -1.14973   0.43347 
 C                     2.491     0.07018   0.23945 
 C                     1.84077   1.18513  -0.23275 
 C                     0.49668   1.06514  -0.52829 
 H                    -2.2479    1.29006   0.7442 
 H                    -3.45377  -0.08348   0.46219 
 H                    -1.90008  -0.313     1.43053 
 H                    -1.88497  -1.23114  -0.94874 
 H                    -1.83953   0.5285   -1.51335 
 H                     0.00584  -2.16703   0.25867 
 H                     2.39378  -2.02892   0.80478 
 H                     3.54203   0.13521   0.47862 
 H                     2.37061   2.14129  -0.37135 
 H                    -0.04936   1.93534  -0.90628 
 

 GradGradGradGradGradGradGradGradGradGradGradGradGradGradGradGradGradGrad
 Berny optimization.
 Initialization pass.
                           ----------------------------
                           !    Initial Parameters    !
                           ! (Angstroms and Degrees)  !
 --------------------------                            --------------------------
 ! Name  Definition              Value          Derivative Info.                !
 --------------------------------------------------------------------------------
 ! R1    R(1,2)                  1.533          estimate D2E/DX2                !
 ! R2    R(1,9)                  1.1287         estimate D2E/DX2                !
 ! R3    R(1,10)                 1.0951         estimate D2E/DX2                !
 ! R4    R(1,11)                 1.1117         estimate D2E/DX2                !
 ! R5    R(2,3)                  1.4839         estimate D2E/DX2                !
 ! R6    R(2,12)                 1.1087         estimate D2E/DX2                !
 ! R7    R(2,13)                 1.1109         estimate D2E/DX2                !
 ! R8    R(3,4)                  1.3767         estimate D2E/DX2                !
 ! R9    R(3,8)                  1.3937         estimate D2E/DX2                !
 ! R10   R(4,5)                  1.3909         estimate D2E/DX2                !
 ! R11   R(4,14)                 1.0828         estimate D2E/DX2                !
 ! R12   R(5,6)                  1.3758         estimate D2E/DX2                !
 ! R13   R(5,15)                 1.0814         estimate D2E/DX2                !
 ! R14   R(6,7)                  1.3744         estimate D2E/DX2                !
 ! R15   R(6,16)                 1.0799         estimate D2E/DX2                !
 ! R16   R(7,8)                  1.3814         estimate D2E/DX2                !
 ! R17   R(7,17)                 1.1019         estimate D2E/DX2                !
 ! R18   R(8,18)                 1.0947         estimate D2E/DX2                !
 ! A1    A(2,1,9)              107.267          estimate D2E/DX2                !
 ! A2    A(2,1,10)             110.6311         estimate D2E/DX2                !
 ! A3    A(2,1,11)             107.5005         estimate D2E/DX2                !
 ! A4    A(9,1,10)             112.5273         estimate D2E/DX2                !
 ! A5    A(9,1,11)             105.0637         estimate D2E/DX2                !
 ! A6    A(10,1,11)            113.4584         estimate D2E/DX2                !
 ! A7    A(1,2,3)              107.4895         estimate D2E/DX2                !
 ! A8    A(1,2,12)             107.0369         estimate D2E/DX2                !
 ! A9    A(1,2,13)             110.3763         estimate D2E/DX2                !
 ! A10   A(3,2,12)             108.4791         estimate D2E/DX2                !
 ! A11   A(3,2,13)             110.4748         estimate D2E/DX2                !
 ! A12   A(12,2,13)            112.7828         estimate D2E/DX2                !
 ! A13   A(2,3,4)              123.6354         estimate D2E/DX2                !
 ! A14   A(2,3,8)              117.4193         estimate D2E/DX2                !
 ! A15   A(4,3,8)              118.9453         estimate D2E/DX2                !
 ! A16   A(3,4,5)              121.8507         estimate D2E/DX2                !
 ! A17   A(3,4,14)             118.485          estimate D2E/DX2                !
 ! A18   A(5,4,14)             119.6643         estimate D2E/DX2                !
 ! A19   A(4,5,6)              116.6384         estimate D2E/DX2                !
 ! A20   A(4,5,15)             119.1462         estimate D2E/DX2                !
 ! A21   A(6,5,15)             124.2153         estimate D2E/DX2                !
 ! A22   A(5,6,7)              124.021          estimate D2E/DX2                !
 ! A23   A(5,6,16)             116.7879         estimate D2E/DX2                !
 ! A24   A(7,6,16)             119.1911         estimate D2E/DX2                !
 ! A25   A(6,7,8)              117.6046         estimate D2E/DX2                !
 ! A26   A(6,7,17)             121.3103         estimate D2E/DX2                !
 ! A27   A(8,7,17)             121.0851         estimate D2E/DX2                !
 ! A28   A(3,8,7)              120.94           estimate D2E/DX2                !
 ! A29   A(3,8,18)             119.7085         estimate D2E/DX2                !
 ! A30   A(7,8,18)             119.3515         estimate D2E/DX2                !
 ! D1    D(9,1,2,3)             72.0397         estimate D2E/DX2                !
 ! D2    D(9,1,2,12)          -171.5925         estimate D2E/DX2                !
 ! D3    D(9,1,2,13)           -48.5088         estimate D2E/DX2                !
 ! D4    D(10,1,2,3)          -164.8861         estimate D2E/DX2                !
 ! D5    D(10,1,2,12)          -48.5183         estimate D2E/DX2                !
 ! D6    D(10,1,2,13)           74.5655         estimate D2E/DX2                !
 ! D7    D(11,1,2,3)           -40.5033         estimate D2E/DX2                !
 ! D8    D(11,1,2,12)           75.8645         estimate D2E/DX2                !
 ! D9    D(11,1,2,13)         -161.0518         estimate D2E/DX2                !
 ! D10   D(1,2,3,4)             89.9997         estimate D2E/DX2                !
 ! D11   D(1,2,3,8)            -90.0003         estimate D2E/DX2                !
 ! D12   D(12,2,3,4)           -25.4164         estimate D2E/DX2                !
 ! D13   D(12,2,3,8)           154.5835         estimate D2E/DX2                !
 ! D14   D(13,2,3,4)          -149.514          estimate D2E/DX2                !
 ! D15   D(13,2,3,8)            30.4859         estimate D2E/DX2                !
 ! D16   D(2,3,4,5)            179.9995         estimate D2E/DX2                !
 ! D17   D(2,3,4,14)            -0.0006         estimate D2E/DX2                !
 ! D18   D(8,3,4,5)             -0.0005         estimate D2E/DX2                !
 ! D19   D(8,3,4,14)           179.9994         estimate D2E/DX2                !
 ! D20   D(2,3,8,7)           -179.9999         estimate D2E/DX2                !
 ! D21   D(2,3,8,18)            -0.0002         estimate D2E/DX2                !
 ! D22   D(4,3,8,7)              0.0001         estimate D2E/DX2                !
 ! D23   D(4,3,8,18)           179.9998         estimate D2E/DX2                !
 ! D24   D(3,4,5,6)              0.0009         estimate D2E/DX2                !
 ! D25   D(3,4,5,15)          -179.9997         estimate D2E/DX2                !
 ! D26   D(14,4,5,6)          -179.9991         estimate D2E/DX2                !
 ! D27   D(14,4,5,15)            0.0003         estimate D2E/DX2                !
 ! D28   D(4,5,6,7)             -0.0009         estimate D2E/DX2                !
 ! D29   D(4,5,6,16)          -179.9996         estimate D2E/DX2                !
 ! D30   D(15,5,6,7)           179.9998         estimate D2E/DX2                !
 ! D31   D(15,5,6,16)            0.001          estimate D2E/DX2                !
 ! D32   D(5,6,7,8)              0.0005         estimate D2E/DX2                !
 ! D33   D(5,6,7,17)          -179.9989         estimate D2E/DX2                !
 ! D34   D(16,6,7,8)           179.9992         estimate D2E/DX2                !
 ! D35   D(16,6,7,17)           -0.0002         estimate D2E/DX2                !
 ! D36   D(6,7,8,3)             -0.0001         estimate D2E/DX2                !
 ! D37   D(6,7,8,18)          -179.9998         estimate D2E/DX2                !
 ! D38   D(17,7,8,3)           179.9993         estimate D2E/DX2                !
 ! D39   D(17,7,8,18)           -0.0004         estimate D2E/DX2                !
 --------------------------------------------------------------------------------
 Trust Radius=3.00D-01 FncErr=1.00D-07 GrdErr=1.00D-06 EigMax=2.50D+02 EigMin=1.00D-04
 Number of steps in this run=     97 maximum allowed number of steps=    108.
 GradGradGradGradGradGradGradGradGradGradGradGradGradGradGradGradGradGrad

                          Input orientation:                          
 ---------------------------------------------------------------------
 Center     Atomic      Atomic             Coordinates (Angstroms)
 Number     Number       Type             X           Y           Z
 ---------------------------------------------------------------------
      1          6           0       -2.397570    0.184990    0.570130
      2          6           0       -1.613830   -0.186810   -0.693850
      3          6           0       -0.170480   -0.145720   -0.351850
      4          6           0        0.531510   -1.230000    0.124420
      5          6           0        1.885280   -1.149730    0.433470
      6          6           0        2.491000    0.070180    0.239450
      7          6           0        1.840770    1.185130   -0.232750
      8          6           0        0.496680    1.065140   -0.528290
      9          1           0       -2.247900    1.290060    0.744200
     10          1           0       -3.453770   -0.083480    0.462190
     11          1           0       -1.900080   -0.313000    1.430530
     12          1           0       -1.884970   -1.231140   -0.948740
     13          1           0       -1.839530    0.528500   -1.513350
     14          1           0        0.005840   -2.167030    0.258670
     15          1           0        2.393780   -2.028920    0.804780
     16          1           0        3.542030    0.135210    0.478620
     17          1           0        2.370610    2.141290   -0.371350
     18          1           0       -0.049360    1.935340   -0.906280
 ---------------------------------------------------------------------
                    Distance matrix (angstroms):
                    1          2          3          4          5
     1  C    0.000000
     2  C    1.533013   0.000000
     3  C    2.432971   1.483884   0.000000
     4  C    3.283346   2.521963   1.376694   0.000000
     5  C    4.488091   3.800242   2.418866   1.390916   0.000000
     6  C    4.901086   4.217431   2.734908   2.354422   1.375762
     7  C    4.428140   3.745543   2.414637   2.770304   2.428457
     8  C    3.218365   2.459480   1.393706   2.386401   2.785470
     9  H    1.128663   2.156659   2.752901   3.802624   4.809606
    10  H    1.095119   2.175427   3.383272   4.160655   5.444554
    11  H    1.111656   2.147290   2.489252   2.908512   4.002898
    12  H    2.138960   1.108653   2.115157   2.644059   4.016456
    13  H    2.184101   1.110941   2.142284   3.375862   4.525569
    14  H    3.377186   2.729816   2.118848   1.082764   2.144236
    15  H    5.283322   4.658347   3.385213   2.137572   1.081397
    16  H    5.940513   5.297289   3.814621   3.324528   2.097124
    17  H    5.239183   4.625994   3.418762   3.872166   3.422586
    18  H    3.279878   2.645036   2.157052   3.379220   3.880131
                    6          7          8          9         10
     6  C    0.000000
     7  C    1.374367   0.000000
     8  C    2.357262   1.381419   0.000000
     9  H    4.919355   4.205076   3.033569   0.000000
    10  H    5.950926   5.488576   4.231599   1.849396   0.000000
    11  H    4.565860   4.359456   3.388319   1.778153   1.845078
    12  H    4.717451   4.498015   3.334957   3.058466   2.401870
    13  H    4.694236   3.951671   2.591564   2.417286   2.623556
    14  H    3.343875   3.852978   3.362611   4.155304   4.043699
    15  H    2.176068   3.422339   3.866429   5.706531   6.172191
    16  H    1.079859   2.121948   3.339580   5.909949   6.999237
    17  H    2.162653   1.101899   2.166643   4.826974   6.290294
    18  H    3.353349   2.142207   1.094662   2.823836   4.187882
                   11         12         13         14         15
    11  H    0.000000
    12  H    2.550321   0.000000
    13  H    3.062388   1.848562   0.000000
    14  H    2.905721   2.430821   3.716359   0.000000
    15  H    4.666174   4.692439   5.462146   2.453481   0.000000
    16  H    5.542886   5.775517   5.751853   4.225320   2.471501
    17  H    5.244912   5.460460   4.650864   4.954865   4.332952
    18  H    3.733749   3.660309   2.356362   4.264926   4.961050
                   16         17         18
    16  H    0.000000
    17  H    2.473667   0.000000
    18  H    4.249294   2.486930   0.000000
 Symmetry turned off by external request.
 Stoichiometry    C8H10
 Framework group  C1[X(C8H10)]
 Deg. of freedom    48
 Full point group                 C1      NOp   1
 Rotational constants (GHZ):           4.5066812           1.5461761           1.2707104
 Standard basis: def2TZVP (5D, 7F)
   308 basis functions,   488 primitive gaussians,   348 cartesian basis functions
    29 alpha electrons       29 beta electrons
       nuclear repulsion energy       344.2797698911 Hartrees.
 NAtoms=   18 NActive=   18 NUniq=   18 SFac= 1.00D+00 NAtFMM=   60 NAOKFM=F Big=F
 Integral buffers will be    131072 words long.
 Raffenetti 2 integral format.
 Two-electron integral symmetry is turned off.
 ------------------------------------------------------------------------------
 Polarizable Continuum Model (PCM)
 =================================
 Model                : PCM.
 Atomic radii         : SMD-Coulomb.
 Polarization charges : Total charges.
 Charge compensation  : None.
 Solution method      : On-the-fly selection.
 Cavity type          : VdW (van der Waals Surface) (Alpha=1.000).
 Cavity algorithm     : GePol (No added spheres)
                        Default sphere list used, NSphG=   18.
                        Lebedev-Laikov grids with approx.  5.0 points / Ang**2.
                        Smoothing algorithm: York/Karplus (Gamma=1.0000).
                        Polarization charges: spherical gaussians, with
                                              point-specific exponents (IZeta= 3).
                        Self-potential: point-specific (ISelfS= 7).
                        Self-field    : sphere-specific E.n sum rule (ISelfD= 2).
 1st derivatives      : Analytical E(r).r(x)/FMM algorithm (CHGder, D1EAlg=3).
                        Cavity 1st derivative terms included.
 Solvent              : Water, Eps=  78.355300 Eps(inf)=   1.777849
 ------------------------------------------------------------------------------
 Spheres list:
 ISph  on   Nord     Re0    Alpha      Xe            Ye            Ze
    1   C      1    1.8500  1.000     -2.397570      0.184990      0.570130
    2   C      2    1.8500  1.000     -1.613830     -0.186810     -0.693850
    3   C      3    1.8500  1.000     -0.170480     -0.145720     -0.351850
    4   C      4    1.8500  1.000      0.531510     -1.230000      0.124420
    5   C      5    1.8500  1.000      1.885280     -1.149730      0.433470
    6   C      6    1.8500  1.000      2.491000      0.070180      0.239450
    7   C      7    1.8500  1.000      1.840770      1.185130     -0.232750
    8   C      8    1.8500  1.000      0.496680      1.065140     -0.528290
    9   H      9    1.2000  1.000     -2.247900      1.290060      0.744200
   10   H     10    1.2000  1.000     -3.453770     -0.083480      0.462190
   11   H     11    1.2000  1.000     -1.900080     -0.313000      1.430530
   12   H     12    1.2000  1.000     -1.884970     -1.231140     -0.948740
   13   H     13    1.2000  1.000     -1.839530      0.528500     -1.513350
   14   H     14    1.2000  1.000      0.005840     -2.167030      0.258670
   15   H     15    1.2000  1.000      2.393780     -2.028920      0.804780
   16   H     16    1.2000  1.000      3.542030      0.135210      0.478620
   17   H     17    1.2000  1.000      2.370610      2.141290     -0.371350
   18   H     18    1.2000  1.000     -0.049360      1.935340     -0.906280
 ------------------------------------------------------------------------------
 ------------------------------------------------------------------------------
 Atomic radii for non-electrostatic terms: SMD-CDS.
 ------------------------------------------------------------------------------
 Nuclear repulsion after PCM non-electrostatic terms =      344.2854288014 Hartrees.
 One-electron integrals computed using PRISM.
   1 Symmetry operations used in ECPInt.
 ECPInt:  NShTT=    8256 NPrTT=   24516 LenC2=    8101 LenP2D=   19433.
 LDataN:  DoStor=T MaxTD1= 6 Len=  172
 NBasis=   308 RedAO= T EigKep=  7.94D-06  NBF=   308
 NBsUse=   308 1.00D-06 EigRej= -1.00D+00 NBFU=   308
 ExpMin= 9.52D-02 ExpMax= 1.36D+04 ExpMxC= 4.63D+02 IAcc=3 IRadAn=         5 AccDes= 0.00D+00
 Harris functional with IExCor= 1009 and IRadAn=       5 diagonalized for initial guess.
 HarFok:  IExCor= 1009 AccDes= 0.00D+00 IRadAn=         5 IDoV= 1 UseB2=F ITyADJ=14
 ICtDFT=  3500011 ScaDFX=  1.000000  1.000000  1.000000  1.000000
 FoFCou: FMM=F IPFlag=           0 FMFlag=      100000 FMFlg1=           0
         NFxFlg=           0 DoJE=T BraDBF=F KetDBF=T FulRan=T
         wScrn=  0.000000 ICntrl=       500 IOpCl=  0 I1Cent=   200000004 NGrid=           0
         NMat0=    1 NMatS0=      1 NMatT0=    0 NMatD0=    1 NMtDS0=    0 NMtDT0=    0
 Symmetry not used in FoFCou.
 Requested convergence on RMS density matrix=1.00D-08 within 128 cycles.
 Requested convergence on MAX density matrix=1.00D-06.
 Requested convergence on             energy=1.00D-06.
 No special actions if energy rises.
 Inv3:  Mode=1 IEnd=     5721483.
 Iteration    1 A*A^-1 deviation from unit magnitude is 4.88D-15 for   1361.
 Iteration    1 A*A^-1 deviation from orthogonality  is 3.48D-15 for   1362    381.
 Iteration    1 A^-1*A deviation from unit magnitude is 4.88D-15 for   1361.
 Iteration    1 A^-1*A deviation from orthogonality  is 6.46D-15 for    807    780.
 Error on total polarization charges =  0.05057
 SCF Done:  E(RM062X) =  -310.833819250     A.U. after   11 cycles
            NFock= 11  Conv=0.74D-08     -V/T= 2.0050
 SMD-CDS (non-electrostatic) energy       (kcal/mol) =       3.55
 (included in total energy above)

 **********************************************************************

            Population analysis using the SCF Density.

 **********************************************************************

 Alpha  occ. eigenvalues --  -10.53767 -10.53528 -10.53491 -10.53180 -10.53071
 Alpha  occ. eigenvalues --  -10.52923 -10.52826 -10.52265  -0.96754  -0.88661
 Alpha  occ. eigenvalues --   -0.84132  -0.80800  -0.70693  -0.68681  -0.64937
 Alpha  occ. eigenvalues --   -0.58040  -0.53555  -0.52255  -0.49491  -0.48864
 Alpha  occ. eigenvalues --   -0.47151  -0.45455  -0.42793  -0.41158  -0.40458
 Alpha  occ. eigenvalues --   -0.38630  -0.37675  -0.30884  -0.29480
 Alpha virt. eigenvalues --    0.02306   0.03051   0.08274   0.10213   0.11114
 Alpha virt. eigenvalues --    0.12069   0.13349   0.14185   0.14549   0.15370
 Alpha virt. eigenvalues --    0.16852   0.18276   0.18875   0.19552   0.21552
 Alpha virt. eigenvalues --    0.22814   0.23181   0.24709   0.25281   0.25768
 Alpha virt. eigenvalues --    0.26818   0.28054   0.28860   0.29305   0.30686
 Alpha virt. eigenvalues --    0.31901   0.34764   0.35835   0.36926   0.37319
 Alpha virt. eigenvalues --    0.37812   0.39123   0.39800   0.40352   0.40978
 Alpha virt. eigenvalues --    0.43636   0.44084   0.44574   0.45653   0.46415
 Alpha virt. eigenvalues --    0.47021   0.47940   0.48364   0.49031   0.49913
 Alpha virt. eigenvalues --    0.51267   0.53447   0.53788   0.54953   0.55790
 Alpha virt. eigenvalues --    0.57098   0.57642   0.59006   0.61893   0.63620
 Alpha virt. eigenvalues --    0.64065   0.69569   0.69902   0.71797   0.72783
 Alpha virt. eigenvalues --    0.75551   0.75710   0.77775   0.78733   0.79159
 Alpha virt. eigenvalues --    0.82747   0.85801   0.86681   0.88641   0.90255
 Alpha virt. eigenvalues --    0.90375   0.92573   0.94706   0.96384   0.97675
 Alpha virt. eigenvalues --    0.98485   1.03920   1.04530   1.05856   1.06141
 Alpha virt. eigenvalues --    1.09917   1.11746   1.13522   1.15913   1.17117
 Alpha virt. eigenvalues --    1.20492   1.22006   1.23119   1.25546   1.26364
 Alpha virt. eigenvalues --    1.28140   1.28670   1.29348   1.33032   1.34399
 Alpha virt. eigenvalues --    1.34892   1.36565   1.42230   1.44135   1.48979
 Alpha virt. eigenvalues --    1.49531   1.50184   1.51929   1.54661   1.55939
 Alpha virt. eigenvalues --    1.56898   1.59620   1.59960   1.61336   1.61590
 Alpha virt. eigenvalues --    1.64845   1.66578   1.67275   1.68347   1.69691
 Alpha virt. eigenvalues --    1.72370   1.75224   1.75628   1.76770   1.77341
 Alpha virt. eigenvalues --    1.79758   1.82149   1.82839   1.85290   1.89294
 Alpha virt. eigenvalues --    1.91028   1.93939   1.96128   1.98118   2.01019
 Alpha virt. eigenvalues --    2.03507   2.04241   2.08435   2.09039   2.12754
 Alpha virt. eigenvalues --    2.16221   2.19760   2.20846   2.22269   2.23778
 Alpha virt. eigenvalues --    2.26887   2.27467   2.28690   2.29953   2.32097
 Alpha virt. eigenvalues --    2.35005   2.36851   2.40222   2.41515   2.45319
 Alpha virt. eigenvalues --    2.48074   2.50427   2.50934   2.53228   2.54709
 Alpha virt. eigenvalues --    2.56935   2.57942   2.60020   2.60760   2.63110
 Alpha virt. eigenvalues --    2.64804   2.67042   2.68814   2.69468   2.70447
 Alpha virt. eigenvalues --    2.70735   2.71593   2.72659   2.75784   2.76060
 Alpha virt. eigenvalues --    2.77694   2.78962   2.80033   2.81253   2.82326
 Alpha virt. eigenvalues --    2.85422   2.85985   2.87291   2.88104   2.90617
 Alpha virt. eigenvalues --    2.95369   2.98224   2.99141   3.00409   3.03829
 Alpha virt. eigenvalues --    3.05947   3.06523   3.09438   3.10638   3.12480
 Alpha virt. eigenvalues --    3.14330   3.15571   3.15966   3.17116   3.18604
 Alpha virt. eigenvalues --    3.20116   3.22813   3.24100   3.24316   3.26628
 Alpha virt. eigenvalues --    3.27462   3.29041   3.30652   3.33194   3.33482
 Alpha virt. eigenvalues --    3.34402   3.36795   3.39077   3.39775   3.41191
 Alpha virt. eigenvalues --    3.42738   3.45234   3.46035   3.47722   3.49600
 Alpha virt. eigenvalues --    3.52199   3.53783   3.55188   3.56210   3.58961
 Alpha virt. eigenvalues --    3.60966   3.61758   3.66487   3.68612   3.71644
 Alpha virt. eigenvalues --    3.73780   3.77077   3.78903   3.83890   3.85618
 Alpha virt. eigenvalues --    3.88183   3.91550   3.92430   3.94416   3.97500
 Alpha virt. eigenvalues --    4.02179   4.03232   4.09134   4.10058   4.12860
 Alpha virt. eigenvalues --    4.12979   4.14695   4.18723   4.22802   4.23275
 Alpha virt. eigenvalues --    4.24806   4.26441   4.31418   4.36076   4.38011
 Alpha virt. eigenvalues --    4.41377   4.42880   4.44466   4.50385   4.53635
 Alpha virt. eigenvalues --    4.57859   4.64081   4.68029   4.70631   4.72823
 Alpha virt. eigenvalues --    4.78867   4.85061   4.86592   4.94479   5.04509
 Alpha virt. eigenvalues --    5.20725   5.22452   5.29309   5.34657   5.42932
 Alpha virt. eigenvalues --    5.59078  22.14538  22.36610  22.61082  22.74427
 Alpha virt. eigenvalues --   22.76757  22.87334  22.96582  23.38184
          Condensed to atoms (all electrons):
               1          2          3          4          5          6
     1  C    5.164917   0.229914  -0.038195  -0.023031   0.001375  -0.000608
     2  C    0.229914   5.255495   0.235094  -0.046663   0.006218  -0.002079
     3  C   -0.038195   0.235094   5.082120   0.483383  -0.059744  -0.044917
     4  C   -0.023031  -0.046663   0.483383   5.091135   0.493142  -0.076630
     5  C    0.001375   0.006218  -0.059744   0.493142   4.981459   0.509964
     6  C   -0.000608  -0.002079  -0.044917  -0.076630   0.509964   4.987629
     7  C    0.001688   0.008542  -0.056603  -0.024122  -0.052562   0.503922
     8  C   -0.011546  -0.076154   0.471028  -0.086941  -0.031421  -0.070859
     9  H    0.404627  -0.034346  -0.006844   0.004355   0.000052  -0.000018
    10  H    0.409385  -0.047332   0.012311   0.000412  -0.000044   0.000006
    11  H    0.416703  -0.066239   0.014662  -0.008360  -0.000277  -0.000151
    12  H   -0.049814   0.436864  -0.058236  -0.007236   0.000085   0.000384
    13  H   -0.045893   0.426453  -0.034685   0.005681  -0.000484  -0.000015
    14  H   -0.000711  -0.001146  -0.042473   0.416475  -0.032616   0.005941
    15  H    0.000046  -0.000190   0.005664  -0.037164   0.424292  -0.028310
    16  H   -0.000001   0.000084   0.000229   0.004823  -0.037639   0.417418
    17  H    0.000049  -0.000211   0.004772  -0.000938   0.003849  -0.031006
    18  H   -0.002305  -0.000106  -0.041930   0.005960  -0.001393   0.005401
               7          8          9         10         11         12
     1  C    0.001688  -0.011546   0.404627   0.409385   0.416703  -0.049814
     2  C    0.008542  -0.076154  -0.034346  -0.047332  -0.066239   0.436864
     3  C   -0.056603   0.471028  -0.006844   0.012311   0.014662  -0.058236
     4  C   -0.024122  -0.086941   0.004355   0.000412  -0.008360  -0.007236
     5  C   -0.052562  -0.031421   0.000052  -0.000044  -0.000277   0.000085
     6  C    0.503922  -0.070859  -0.000018   0.000006  -0.000151   0.000384
     7  C    4.977282   0.495148  -0.000397  -0.000011   0.000002  -0.001190
     8  C    0.495148   5.121228  -0.003361   0.000468   0.004108   0.010625
     9  H   -0.000397  -0.003361   0.529007  -0.017147  -0.030459   0.006647
    10  H   -0.000011   0.000468  -0.017147   0.513217  -0.020359  -0.005477
    11  H    0.000002   0.004108  -0.030459  -0.020359   0.524599  -0.000772
    12  H   -0.001190   0.010625   0.006647  -0.005477  -0.000772   0.530659
    13  H    0.001003  -0.013309  -0.006669  -0.000452   0.006463  -0.018587
    14  H   -0.002235   0.009162  -0.000045  -0.000063   0.001300   0.001228
    15  H    0.003666  -0.001130  -0.000001  -0.000002   0.000033  -0.000032
    16  H   -0.033951   0.004183  -0.000001   0.000000  -0.000002  -0.000003
    17  H    0.417418  -0.031433  -0.000000  -0.000001   0.000008   0.000009
    18  H   -0.028958   0.415701   0.000395  -0.000012   0.000205   0.000435
              13         14         15         16         17         18
     1  C   -0.045893  -0.000711   0.000046  -0.000001   0.000049  -0.002305
     2  C    0.426453  -0.001146  -0.000190   0.000084  -0.000211  -0.000106
     3  C   -0.034685  -0.042473   0.005664   0.000229   0.004772  -0.041930
     4  C    0.005681   0.416475  -0.037164   0.004823  -0.000938   0.005960
     5  C   -0.000484  -0.032616   0.424292  -0.037639   0.003849  -0.001393
     6  C   -0.000015   0.005941  -0.028310   0.417418  -0.031006   0.005401
     7  C    0.001003  -0.002235   0.003666  -0.033951   0.417418  -0.028958
     8  C   -0.013309   0.009162  -0.001130   0.004183  -0.031433   0.415701
     9  H   -0.006669  -0.000045  -0.000001  -0.000001  -0.000000   0.000395
    10  H   -0.000452  -0.000063  -0.000002   0.000000  -0.000001  -0.000012
    11  H    0.006463   0.001300   0.000033  -0.000002   0.000008   0.000205
    12  H   -0.018587   0.001228  -0.000032  -0.000003   0.000009   0.000435
    13  H    0.518319   0.000296   0.000010  -0.000002  -0.000012  -0.000468
    14  H    0.000296   0.468522  -0.003144  -0.000231   0.000052  -0.000131
    15  H    0.000010  -0.003144   0.455079  -0.003925  -0.000127   0.000044
    16  H   -0.000002  -0.000231  -0.003925   0.480222  -0.004233  -0.000217
    17  H   -0.000012   0.000052  -0.000127  -0.004233   0.459728  -0.003126
    18  H   -0.000468  -0.000131   0.000044  -0.000217  -0.003126   0.463384
 Mulliken charges:
               1
     1  C   -0.456599
     2  C   -0.324197
     3  C    0.074363
     4  C   -0.194283
     5  C   -0.204256
     6  C   -0.176072
     7  C   -0.208642
     8  C   -0.205496
     9  H    0.154206
    10  H    0.155100
    11  H    0.158537
    12  H    0.154411
    13  H    0.162352
    14  H    0.179819
    15  H    0.185189
    16  H    0.173247
    17  H    0.185201
    18  H    0.187122
 Sum of Mulliken charges =  -0.00000
 Mulliken charges with hydrogens summed into heavy atoms:
               1
     1  C    0.011243
     2  C   -0.007434
     3  C    0.074363
     4  C   -0.014464
     5  C   -0.019068
     6  C   -0.002825
     7  C   -0.023441
     8  C   -0.018374
 Electronic spatial extent (au):  <R**2>=           1014.3428
 Charge=             -0.0000 electrons
 Dipole moment (field-independent basis, Debye):
    X=             -0.5889    Y=             -0.0375    Z=             -0.0942  Tot=              0.5976
 Quadrupole moment (field-independent basis, Debye-Ang):
   XX=            -45.6126   YY=            -44.2898   ZZ=            -52.6162
   XY=              0.5971   XZ=              2.4491   YZ=             -2.6982
 Traceless Quadrupole moment (field-independent basis, Debye-Ang):
   XX=              1.8936   YY=              3.2164   ZZ=             -5.1100
   XY=              0.5971   XZ=              2.4491   YZ=             -2.6982
 Octapole moment (field-independent basis, Debye-Ang**2):
  XXX=            -30.1187  YYY=              2.0362  ZZZ=              5.1705  XYY=             -8.2784
  XXY=              0.4933  XXZ=              4.2146  XZZ=            -17.0876  YZZ=              1.2189
  YYZ=              1.3562  XYZ=             -2.6811
 Hexadecapole moment (field-independent basis, Debye-Ang**3):
 XXXX=           -917.4217 YYYY=           -282.8894 ZZZZ=           -150.3764 XXXY=             11.5560
 XXXZ=             12.2733 YYYX=              3.8430 YYYZ=             13.4936 ZZZX=             -8.7833
 ZZZY=             25.2059 XXYY=           -196.7026 XXZZ=           -198.7370 YYZZ=            -77.1094
 XXYZ=             -0.7919 YYXZ=              1.2710 ZZXY=             -2.6443
 N-N= 3.442854288014D+02 E-N=-1.408936929995D+03  KE= 3.092926252951D+02
   1 Symmetry operations used in ECPInt.
 ECPInt:  NShTT=    8256 NPrTT=   24516 LenC2=    8101 LenP2D=   19433.
 LDataN:  DoStor=T MaxTD1= 7 Len=  274
 D1PCM: PCM CHGder 1st derivatives, ID1Alg=3 FixD1E=F DoIter=F DoCFld=F I1PDM=0.
 Calling FoFJK, ICntrl=      2127 FMM=F ISym2X=0 I1Cent= 0 IOpClX= 0 NMat=1 NMatS=1 NMatT=0.
 -------------------------------------------------------------------
 Center     Atomic                   Forces (Hartrees/Bohr)
 Number     Number              X              Y              Z
 -------------------------------------------------------------------
      1        6           0.013287801    0.019211623    0.005642711
      2        6          -0.012366510   -0.012712134    0.003428047
      3        6           0.007288239    0.018419428   -0.015885001
      4        6          -0.000761334   -0.016035027    0.005125139
      5        6          -0.021288815    0.001704863   -0.004567599
      6        6           0.035609167   -0.004893590    0.010130376
      7        6          -0.003600922    0.012250647   -0.003197439
      8        6          -0.002746574    0.012114183   -0.003057629
      9        1          -0.009882169   -0.019921951   -0.001422396
     10        1           0.003478595    0.004173152    0.006254847
     11        1          -0.014408766    0.001570289   -0.007549309
     12        1           0.000834055    0.012078397   -0.005287765
     13        1           0.000920203   -0.013358763    0.007302593
     14        1          -0.000900548   -0.002211729   -0.000224202
     15        1           0.004196289    0.002842502    0.000055933
     16        1           0.004182293    0.002846268   -0.000059837
     17        1          -0.005595090   -0.011831145    0.001791371
     18        1           0.001754086   -0.006247012    0.001520159
 -------------------------------------------------------------------
 Cartesian Forces:  Max     0.035609167 RMS     0.010143730

 GradGradGradGradGradGradGradGradGradGradGradGradGradGradGradGradGradGrad
 Berny optimization.
 FormGI is forming the generalized inverse of G from B-inverse, IUseBI=4.
 Internal  Forces:  Max     0.021037106 RMS     0.006573819
 Search for a local minimum.
 Step number   1 out of a maximum of   97
 All quantities printed in internal units (Hartrees-Bohrs-Radians)
 Mixed Optimization -- RFO/linear search
 Second derivative matrix not updated -- first step.
 ITU=  0
     Eigenvalues ---    0.00329   0.00979   0.01759   0.02238   0.02259
     Eigenvalues ---    0.02293   0.02317   0.02339   0.02379   0.02401
     Eigenvalues ---    0.02419   0.04897   0.05597   0.05791   0.06264
     Eigenvalues ---    0.08547   0.12206   0.16000   0.16000   0.16000
     Eigenvalues ---    0.16000   0.16000   0.16000   0.16000   0.16000
     Eigenvalues ---    0.22000   0.22000   0.22086   0.23467   0.25000
     Eigenvalues ---    0.29147   0.30701   0.32425   0.32501   0.32743
     Eigenvalues ---    0.33473   0.34129   0.34228   0.34279   0.35662
     Eigenvalues ---    0.35826   0.36011   0.43270   0.44163   0.47700
     Eigenvalues ---    0.48278   0.49598   0.49975
 RFO step:  Lambda=-1.53274927D-02 EMin= 3.29247921D-03
 Linear search not attempted -- first point.
 Iteration  1 RMS(Cart)=  0.06381052 RMS(Int)=  0.00178353
 Iteration  2 RMS(Cart)=  0.00207425 RMS(Int)=  0.00058951
 Iteration  3 RMS(Cart)=  0.00000593 RMS(Int)=  0.00058950
 Iteration  4 RMS(Cart)=  0.00000001 RMS(Int)=  0.00058950
 Variable       Old X    -DE/DX   Delta X   Delta X   Delta X     New X
                                 (Linear)    (Quad)   (Total)
    R1        2.89697   0.00748   0.00000   0.02437   0.02437   2.92135
    R2        2.13286  -0.02104   0.00000  -0.06526  -0.06526   2.06760
    R3        2.06947  -0.00499   0.00000  -0.01396  -0.01396   2.05551
    R4        2.10072  -0.01299   0.00000  -0.03827  -0.03827   2.06246
    R5        2.80413   0.01596   0.00000   0.04476   0.04476   2.84889
    R6        2.09505  -0.01036   0.00000  -0.03024  -0.03024   2.06481
    R7        2.09937  -0.01418   0.00000  -0.04165  -0.04165   2.05772
    R8        2.60157   0.01251   0.00000   0.02385   0.02373   2.62530
    R9        2.63372   0.00542   0.00000   0.01080   0.01065   2.64437
   R10        2.62845   0.00494   0.00000   0.00998   0.01001   2.63846
   R11        2.04613   0.00232   0.00000   0.00624   0.00624   2.05237
   R12        2.59981   0.01067   0.00000   0.02118   0.02133   2.62114
   R13        2.04354  -0.00032   0.00000  -0.00085  -0.00085   2.04269
   R14        2.59718   0.01366   0.00000   0.02699   0.02711   2.62428
   R15        2.04064   0.00423   0.00000   0.01126   0.01126   2.05190
   R16        2.61050   0.00915   0.00000   0.01831   0.01828   2.62878
   R17        2.08229  -0.01318   0.00000  -0.03765  -0.03765   2.04463
   R18        2.06861  -0.00637   0.00000  -0.01777  -0.01777   2.05084
    A1        1.87216   0.00705   0.00000   0.04642   0.04519   1.91736
    A2        1.93088   0.00517   0.00000   0.01808   0.01803   1.94890
    A3        1.87624   0.00677   0.00000   0.04241   0.04126   1.91750
    A4        1.96397  -0.00801   0.00000  -0.05480  -0.05493   1.90904
    A5        1.83371  -0.00131   0.00000   0.01944   0.01702   1.85073
    A6        1.98022  -0.00863   0.00000  -0.06250  -0.06247   1.91775
    A7        1.87605   0.01264   0.00000   0.06799   0.06666   1.94270
    A8        1.86815   0.00027   0.00000   0.02524   0.02312   1.89126
    A9        1.92643  -0.00328   0.00000  -0.01807  -0.01757   1.90886
   A10        1.89332  -0.00125   0.00000   0.02024   0.01761   1.91093
   A11        1.92815  -0.00458   0.00000  -0.02617  -0.02588   1.90227
   A12        1.96843  -0.00284   0.00000  -0.06099  -0.06087   1.90756
   A13        2.15784  -0.00894   0.00000  -0.03263  -0.03262   2.12522
   A14        2.04935   0.01151   0.00000   0.04443   0.04440   2.09375
   A15        2.07599  -0.00257   0.00000  -0.01181  -0.01220   2.06379
   A16        2.12670  -0.00229   0.00000  -0.01151  -0.01158   2.11512
   A17        2.06795   0.00126   0.00000   0.00641   0.00644   2.07439
   A18        2.08854   0.00103   0.00000   0.00511   0.00514   2.09367
   A19        2.03572   0.01221   0.00000   0.05223   0.05244   2.08816
   A20        2.07949  -0.00093   0.00000   0.00336   0.00325   2.08275
   A21        2.16797  -0.01127   0.00000  -0.05559  -0.05570   2.11227
   A22        2.16457  -0.01646   0.00000  -0.06811  -0.06781   2.09676
   A23        2.03833   0.01105   0.00000   0.05015   0.05000   2.08834
   A24        2.08028   0.00541   0.00000   0.01796   0.01781   2.09808
   A25        2.05259   0.00837   0.00000   0.03685   0.03696   2.08954
   A26        2.11726  -0.00505   0.00000  -0.02339  -0.02345   2.09381
   A27        2.11333  -0.00331   0.00000  -0.01345  -0.01352   2.09982
   A28        2.11080   0.00075   0.00000   0.00235   0.00219   2.11299
   A29        2.08931  -0.00231   0.00000  -0.01222  -0.01214   2.07717
   A30        2.08308   0.00156   0.00000   0.00987   0.00995   2.09303
    D1        1.25733  -0.00006   0.00000  -0.03982  -0.03975   1.21758
    D2       -2.99485   0.00493   0.00000   0.03026   0.03147  -2.96338
    D3       -0.84664  -0.00037   0.00000  -0.03937  -0.03875  -0.88538
    D4       -2.87780  -0.00216   0.00000  -0.06602  -0.06655  -2.94436
    D5       -0.84680   0.00283   0.00000   0.00405   0.00467  -0.84213
    D6        1.30141  -0.00247   0.00000  -0.06557  -0.06555   1.23587
    D7       -0.70692  -0.00504   0.00000  -0.10380  -0.10504  -0.81196
    D8        1.32408  -0.00006   0.00000  -0.03372  -0.03382   1.29027
    D9       -2.81088  -0.00536   0.00000  -0.10335  -0.10404  -2.91492
   D10        1.57079   0.00130   0.00000   0.01238   0.01290   1.58369
   D11       -1.57080   0.00234   0.00000   0.04404   0.04474  -1.52606
   D12       -0.44360  -0.00496   0.00000  -0.06277  -0.06331  -0.50691
   D13        2.69799  -0.00391   0.00000  -0.03111  -0.03146   2.66653
   D14       -2.60951   0.00245   0.00000   0.01713   0.01687  -2.59265
   D15        0.53208   0.00349   0.00000   0.04878   0.04871   0.58079
   D16        3.14158   0.00115   0.00000   0.03254   0.03184  -3.10976
   D17       -0.00001   0.00110   0.00000   0.03134   0.03074   0.03073
   D18       -0.00001   0.00010   0.00000   0.00043   0.00053   0.00052
   D19        3.14158   0.00005   0.00000  -0.00077  -0.00057   3.14101
   D20       -3.14159  -0.00110   0.00000  -0.03098  -0.03157   3.11003
   D21       -0.00000  -0.00107   0.00000  -0.03069  -0.03113  -0.03113
   D22        0.00000  -0.00011   0.00000  -0.00086  -0.00083  -0.00083
   D23        3.14159  -0.00008   0.00000  -0.00057  -0.00040   3.14119
   D24        0.00002  -0.00009   0.00000  -0.00136  -0.00157  -0.00155
   D25       -3.14159   0.00009   0.00000   0.00282   0.00284  -3.13875
   D26       -3.14158  -0.00004   0.00000  -0.00014  -0.00045   3.14116
   D27        0.00001   0.00014   0.00000   0.00404   0.00396   0.00396
   D28       -0.00002   0.00010   0.00000   0.00288   0.00290   0.00288
   D29       -3.14159   0.00021   0.00000   0.00513   0.00520  -3.13639
   D30        3.14159  -0.00009   0.00000  -0.00153  -0.00159   3.14000
   D31        0.00002   0.00002   0.00000   0.00071   0.00072   0.00073
   D32        0.00001  -0.00011   0.00000  -0.00332  -0.00320  -0.00319
   D33       -3.14157   0.00009   0.00000   0.00164   0.00164  -3.13993
   D34        3.14158  -0.00022   0.00000  -0.00562  -0.00552   3.13606
   D35       -0.00000  -0.00002   0.00000  -0.00065  -0.00068  -0.00068
   D36       -0.00000   0.00011   0.00000   0.00221   0.00218   0.00217
   D37       -3.14159   0.00008   0.00000   0.00192   0.00174  -3.13985
   D38        3.14158  -0.00009   0.00000  -0.00274  -0.00268   3.13890
   D39       -0.00001  -0.00011   0.00000  -0.00303  -0.00312  -0.00313
         Item               Value     Threshold  Converged?
 Maximum Force            0.021037     0.000450     NO 
 RMS     Force            0.006574     0.000300     NO 
 Maximum Displacement     0.350354     0.001800     NO 
 RMS     Displacement     0.063360     0.001200     NO 
 Predicted change in Energy=-8.528491D-03
 GradGradGradGradGradGradGradGradGradGradGradGradGradGradGradGradGradGrad

                          Input orientation:                          
 ---------------------------------------------------------------------
 Center     Atomic      Atomic             Coordinates (Angstroms)
 Number     Number       Type             X           Y           Z
 ---------------------------------------------------------------------
      1          6           0       -2.468288    0.193245    0.577104
      2          6           0       -1.629468   -0.201133   -0.660104
      3          6           0       -0.152566   -0.129083   -0.366273
      4          6           0        0.552441   -1.226577    0.111733
      5          6           0        1.912193   -1.136005    0.415521
      6          6           0        2.576276    0.068573    0.236945
      7          6           0        1.890742    1.178877   -0.238228
      8          6           0        0.536160    1.076877   -0.537960
      9          1           0       -2.359065    1.263911    0.774233
     10          1           0       -3.521198   -0.043009    0.440286
     11          1           0       -2.085480   -0.317011    1.462691
     12          1           0       -1.895105   -1.222034   -0.944854
     13          1           0       -1.860389    0.473567   -1.482999
     14          1           0        0.027485   -2.167352    0.249237
     15          1           0        2.431983   -2.009576    0.783124
     16          1           0        3.634843    0.137899    0.468536
     17          1           0        2.411817    2.116758   -0.377960
     18          1           0       -0.002370    1.942084   -0.911033
 ---------------------------------------------------------------------
                    Distance matrix (angstroms):
                    1          2          3          4          5
     1  C    0.000000
     2  C    1.545909   0.000000
     3  C    2.521194   1.507570   0.000000
     4  C    3.370054   2.531402   1.389251   0.000000
     5  C    4.580570   3.817633   2.426587   1.396215   0.000000
     6  C    5.057556   4.308796   2.801699   2.406034   1.387049
     7  C    4.542839   3.804509   2.429458   2.774839   2.405520
     8  C    3.324287   2.517573   1.399343   2.393379   2.774787
     9  H    1.094127   2.176232   2.847774   3.888225   4.912424
    10  H    1.087729   2.194197   3.464913   4.254799   5.542291
    11  H    1.091406   2.174312   2.667692   3.100165   4.212921
    12  H    2.155901   1.092650   2.136759   2.665873   4.043951
    13  H    2.166137   1.088899   2.127657   3.354908   4.519677
    14  H    3.450912   2.727345   2.136776   1.086068   2.154867
    15  H    5.376571   4.674266   3.396655   2.143953   1.080945
    16  H    6.104347   5.394603   3.887499   3.389735   2.143167
    17  H    5.331743   4.667356   3.408813   3.856808   3.385219
    18  H    3.369531   2.702553   2.146871   3.375540   3.860042
                    6          7          8          9         10
     6  C    0.000000
     7  C    1.388711   0.000000
     8  C    2.404002   1.391092   0.000000
     9  H    5.106378   4.369573   3.184204   0.000000
    10  H    6.101884   5.589498   4.321257   1.780481   0.000000
    11  H    4.835607   4.576150   3.580297   1.745892   1.783726
    12  H    4.801621   4.538318   3.370698   3.057849   2.439855
    13  H    4.775587   4.014711   2.645851   2.443034   2.593099
    14  H    3.390553   3.860906   3.376900   4.212458   4.140348
    15  H    2.153564   3.391509   3.855594   5.802580   6.278956
    16  H    1.085820   2.150590   3.390656   6.106413   7.158383
    17  H    2.144812   1.081973   2.150592   4.981587   6.366694
    18  H    3.387818   2.149192   1.085256   2.975575   4.260141
                   11         12         13         14         15
    11  H    0.000000
    12  H    2.579066   0.000000
    13  H    3.058231   1.779289   0.000000
    14  H    3.059551   2.452719   3.679561   0.000000
    15  H    4.871762   4.725444   5.452136   2.468105   0.000000
    16  H    5.823862   5.867487   5.841125   4.286642   2.481428
    17  H    5.434787   5.478913   4.708815   4.942876   4.286626
    18  H    3.882965   3.687171   2.436375   4.270197   4.940836
                   16         17         18
    16  H    0.000000
    17  H    2.475527   0.000000
    18  H    4.288078   2.478503   0.000000
 Symmetry turned off by external request.
 Stoichiometry    C8H10
 Framework group  C1[X(C8H10)]
 Deg. of freedom    48
 Full point group                 C1      NOp   1
 Rotational constants (GHZ):           4.5420586           1.4755294           1.2247986
 Standard basis: def2TZVP (5D, 7F)
   308 basis functions,   488 primitive gaussians,   348 cartesian basis functions
    29 alpha electrons       29 beta electrons
       nuclear repulsion energy       340.9117610575 Hartrees.
 NAtoms=   18 NActive=   18 NUniq=   18 SFac= 1.00D+00 NAtFMM=   60 NAOKFM=F Big=F
 Integral buffers will be    131072 words long.
 Raffenetti 2 integral format.
 Two-electron integral symmetry is turned off.
 ------------------------------------------------------------------------------
 Polarizable Continuum Model (PCM)
 =================================
 Model                : PCM.
 Atomic radii         : SMD-Coulomb.
 Polarization charges : Total charges.
 Charge compensation  : None.
 Solution method      : On-the-fly selection.
 Cavity type          : VdW (van der Waals Surface) (Alpha=1.000).
 Cavity algorithm     : GePol (No added spheres)
                        Default sphere list used, NSphG=   18.
                        Lebedev-Laikov grids with approx.  5.0 points / Ang**2.
                        Smoothing algorithm: York/Karplus (Gamma=1.0000).
                        Polarization charges: spherical gaussians, with
                                              point-specific exponents (IZeta= 3).
                        Self-potential: point-specific (ISelfS= 7).
                        Self-field    : sphere-specific E.n sum rule (ISelfD= 2).
 1st derivatives      : Analytical E(r).r(x)/FMM algorithm (CHGder, D1EAlg=3).
                        Cavity 1st derivative terms included.
 Solvent              : Water, Eps=  78.355300 Eps(inf)=   1.777849
 ------------------------------------------------------------------------------
 Spheres list:
 ISph  on   Nord     Re0    Alpha      Xe            Ye            Ze
    1   C      1    1.8500  1.000     -2.468288      0.193245      0.577104
    2   C      2    1.8500  1.000     -1.629468     -0.201133     -0.660104
    3   C      3    1.8500  1.000     -0.152566     -0.129083     -0.366273
    4   C      4    1.8500  1.000      0.552441     -1.226577      0.111733
    5   C      5    1.8500  1.000      1.912193     -1.136005      0.415521
    6   C      6    1.8500  1.000      2.576276      0.068573      0.236945
    7   C      7    1.8500  1.000      1.890742      1.178877     -0.238228
    8   C      8    1.8500  1.000      0.536160      1.076877     -0.537960
    9   H      9    1.2000  1.000     -2.359065      1.263911      0.774233
   10   H     10    1.2000  1.000     -3.521198     -0.043009      0.440286
   11   H     11    1.2000  1.000     -2.085480     -0.317011      1.462691
   12   H     12    1.2000  1.000     -1.895105     -1.222034     -0.944854
   13   H     13    1.2000  1.000     -1.860389      0.473567     -1.482999
   14   H     14    1.2000  1.000      0.027485     -2.167352      0.249237
   15   H     15    1.2000  1.000      2.431983     -2.009576      0.783124
   16   H     16    1.2000  1.000      3.634843      0.137899      0.468536
   17   H     17    1.2000  1.000      2.411817      2.116758     -0.377960
   18   H     18    1.2000  1.000     -0.002370      1.942084     -0.911033
 ------------------------------------------------------------------------------
 ------------------------------------------------------------------------------
 Atomic radii for non-electrostatic terms: SMD-CDS.
 ------------------------------------------------------------------------------
 Nuclear repulsion after PCM non-electrostatic terms =      340.9174558050 Hartrees.
 One-electron integrals computed using PRISM.
   1 Symmetry operations used in ECPInt.
 ECPInt:  NShTT=    8256 NPrTT=   24516 LenC2=    8078 LenP2D=   19323.
 LDataN:  DoStor=T MaxTD1= 6 Len=  172
 NBasis=   308 RedAO= T EigKep=  8.35D-06  NBF=   308
 NBsUse=   308 1.00D-06 EigRej= -1.00D+00 NBFU=   308
 Initial guess from the checkpoint file:  "mol1.chk"
 B after Tr=     0.025311    0.005499   -0.002349
         Rot=    0.999999   -0.000143   -0.001226    0.000374 Ang=  -0.15 deg.
 ExpMin= 9.52D-02 ExpMax= 1.36D+04 ExpMxC= 4.63D+02 IAcc=3 IRadAn=         5 AccDes= 0.00D+00
 Harris functional with IExCor= 1009 and IRadAn=       5 diagonalized for initial guess.
 HarFok:  IExCor= 1009 AccDes= 0.00D+00 IRadAn=         5 IDoV= 1 UseB2=F ITyADJ=14
 ICtDFT=  3500011 ScaDFX=  1.000000  1.000000  1.000000  1.000000
 FoFCou: FMM=F IPFlag=           0 FMFlag=      100000 FMFlg1=           0
         NFxFlg=           0 DoJE=T BraDBF=F KetDBF=T FulRan=T
         wScrn=  0.000000 ICntrl=       500 IOpCl=  0 I1Cent=   200000004 NGrid=           0
         NMat0=    1 NMatS0=      1 NMatT0=    0 NMatD0=    1 NMtDS0=    0 NMtDT0=    0
 Symmetry not used in FoFCou.
 Requested convergence on RMS density matrix=1.00D-08 within 128 cycles.
 Requested convergence on MAX density matrix=1.00D-06.
 Requested convergence on             energy=1.00D-06.
 No special actions if energy rises.
 Inv3:  Mode=1 IEnd=     5863212.
 Iteration    1 A*A^-1 deviation from unit magnitude is 3.66D-15 for   1376.
 Iteration    1 A*A^-1 deviation from orthogonality  is 2.42D-15 for   1385    423.
 Iteration    1 A^-1*A deviation from unit magnitude is 3.22D-15 for   1376.
 Iteration    1 A^-1*A deviation from orthogonality  is 2.15D-15 for   1392    439.
 Error on total polarization charges =  0.05033
 SCF Done:  E(RM062X) =  -310.842118968     A.U. after   11 cycles
            NFock= 11  Conv=0.39D-08     -V/T= 2.0053
 SMD-CDS (non-electrostatic) energy       (kcal/mol) =       3.57
 (included in total energy above)
   1 Symmetry operations used in ECPInt.
 ECPInt:  NShTT=    8256 NPrTT=   24516 LenC2=    8078 LenP2D=   19323.
 LDataN:  DoStor=T MaxTD1= 7 Len=  274
 D1PCM: PCM CHGder 1st derivatives, ID1Alg=3 FixD1E=F DoIter=F DoCFld=F I1PDM=0.
 Calling FoFJK, ICntrl=      2127 FMM=F ISym2X=0 I1Cent= 0 IOpClX= 0 NMat=1 NMatS=1 NMatT=0.
 -------------------------------------------------------------------
 Center     Atomic                   Forces (Hartrees/Bohr)
 Number     Number              X              Y              Z
 -------------------------------------------------------------------
      1        6           0.010989519    0.003671321   -0.003434478
      2        6          -0.002388361   -0.001971258    0.010101011
      3        6           0.000719294    0.007355915   -0.002918384
      4        6           0.002666441   -0.003602565    0.002368026
      5        6          -0.008760209    0.000753688   -0.002465826
      6        6           0.006209252   -0.001331845    0.002020077
      7        6          -0.004253998   -0.001543215   -0.000730258
      8        6           0.000580686   -0.000675408    0.000941671
      9        1          -0.002009688   -0.000935853   -0.001152626
     10        1          -0.000955340    0.000240000    0.000009687
     11        1          -0.002880122   -0.003125534   -0.000343956
     12        1           0.000832996    0.001437681   -0.001960521
     13        1          -0.001772961   -0.001292636   -0.001940799
     14        1           0.001063823    0.000357636   -0.000058022
     15        1           0.001652656   -0.000228022    0.000412743
     16        1          -0.001867636    0.000493619   -0.000537597
     17        1          -0.000207863    0.000666237   -0.000257738
     18        1           0.000381513   -0.000269761   -0.000053010
 -------------------------------------------------------------------
 Cartesian Forces:  Max     0.010989519 RMS     0.003181509

 GradGradGradGradGradGradGradGradGradGradGradGradGradGradGradGradGradGrad
 Berny optimization.
 Using GEDIIS/GDIIS optimizer.
 FormGI is forming the generalized inverse of G from B-inverse, IUseBI=4.
 Internal  Forces:  Max     0.006769720 RMS     0.001393405
 Search for a local minimum.
 Step number   2 out of a maximum of   97
 All quantities printed in internal units (Hartrees-Bohrs-Radians)
 Mixed Optimization -- RFO/linear search
 Update second derivatives using D2CorX and points    1    2
 DE= -8.30D-03 DEPred=-8.53D-03 R= 9.73D-01
 TightC=F SS=  1.41D+00  RLast= 3.25D-01 DXNew= 5.0454D-01 9.7365D-01
 Trust test= 9.73D-01 RLast= 3.25D-01 DXMaxT set to 5.05D-01
 ITU=  1  0
 Use linear search instead of GDIIS.
     Eigenvalues ---    0.00333   0.00979   0.01759   0.02240   0.02260
     Eigenvalues ---    0.02291   0.02317   0.02339   0.02379   0.02399
     Eigenvalues ---    0.02419   0.04461   0.05378   0.05479   0.05703
     Eigenvalues ---    0.09157   0.12672   0.15663   0.16000   0.16000
     Eigenvalues ---    0.16000   0.16000   0.16000   0.16000   0.16167
     Eigenvalues ---    0.21019   0.22000   0.22343   0.23613   0.24609
     Eigenvalues ---    0.29306   0.30919   0.32437   0.32674   0.32834
     Eigenvalues ---    0.33588   0.34214   0.34257   0.35052   0.35702
     Eigenvalues ---    0.35856   0.36639   0.43219   0.44372   0.48178
     Eigenvalues ---    0.48548   0.49785   0.50184
 RFO step:  Lambda=-1.43813376D-03 EMin= 3.32506246D-03
 Quartic linear search produced a step of  0.10625.
 Iteration  1 RMS(Cart)=  0.03996233 RMS(Int)=  0.00218942
 Iteration  2 RMS(Cart)=  0.00222818 RMS(Int)=  0.00013009
 Iteration  3 RMS(Cart)=  0.00000675 RMS(Int)=  0.00013000
 Iteration  4 RMS(Cart)=  0.00000000 RMS(Int)=  0.00013000
 Variable       Old X    -DE/DX   Delta X   Delta X   Delta X     New X
                                 (Linear)    (Quad)   (Total)
    R1        2.92135  -0.00677   0.00259  -0.02731  -0.02472   2.89662
    R2        2.06760  -0.00132  -0.00693   0.00023  -0.00670   2.06090
    R3        2.05551   0.00087  -0.00148   0.00385   0.00237   2.05788
    R4        2.06246   0.00017  -0.00407   0.00348  -0.00058   2.06188
    R5        2.84889  -0.00193   0.00476  -0.00960  -0.00485   2.84405
    R6        2.06481  -0.00103  -0.00321  -0.00117  -0.00438   2.06043
    R7        2.05772   0.00104  -0.00443   0.00667   0.00225   2.05997
    R8        2.62530   0.00237   0.00252   0.00337   0.00588   2.63118
    R9        2.64437  -0.00290   0.00113  -0.00776  -0.00665   2.63772
   R10        2.63846  -0.00470   0.00106  -0.01165  -0.01058   2.62788
   R11        2.05237  -0.00083   0.00066  -0.00303  -0.00237   2.05001
   R12        2.62114   0.00081   0.00227   0.00033   0.00261   2.62375
   R13        2.04269   0.00112  -0.00009   0.00349   0.00340   2.04609
   R14        2.62428   0.00150   0.00288   0.00136   0.00426   2.62854
   R15        2.05190  -0.00190   0.00120  -0.00665  -0.00545   2.04645
   R16        2.62878  -0.00277   0.00194  -0.00763  -0.00569   2.62309
   R17        2.04463   0.00051  -0.00400   0.00453   0.00053   2.04516
   R18        2.05084  -0.00039  -0.00189   0.00011  -0.00178   2.04906
    A1        1.91736   0.00095   0.00480   0.00901   0.01345   1.93081
    A2        1.94890  -0.00068   0.00192  -0.01591  -0.01400   1.93490
    A3        1.91750   0.00084   0.00438   0.00587   0.00986   1.92736
    A4        1.90904  -0.00099  -0.00584  -0.00936  -0.01516   1.89388
    A5        1.85073   0.00137   0.00181   0.02894   0.03002   1.88075
    A6        1.91775  -0.00140  -0.00664  -0.01634  -0.02302   1.89473
    A7        1.94270  -0.00098   0.00708  -0.00571   0.00117   1.94388
    A8        1.89126   0.00173   0.00246   0.01532   0.01752   1.90878
    A9        1.90886   0.00005  -0.00187  -0.00002  -0.00181   1.90705
   A10        1.91093   0.00001   0.00187   0.00188   0.00336   1.91429
   A11        1.90227   0.00073  -0.00275   0.00628   0.00357   1.90583
   A12        1.90756  -0.00157  -0.00647  -0.01816  -0.02458   1.88297
   A13        2.12522  -0.00278  -0.00347  -0.00956  -0.01304   2.11218
   A14        2.09375   0.00165   0.00472   0.00390   0.00859   2.10234
   A15        2.06379   0.00112  -0.00130   0.00543   0.00407   2.06786
   A16        2.11512  -0.00101  -0.00123  -0.00412  -0.00536   2.10976
   A17        2.07439   0.00125   0.00068   0.00712   0.00780   2.08220
   A18        2.09367  -0.00024   0.00055  -0.00299  -0.00245   2.09123
   A19        2.08816   0.00129   0.00557   0.00289   0.00849   2.09666
   A20        2.08275   0.00069   0.00035   0.00532   0.00565   2.08839
   A21        2.11227  -0.00198  -0.00592  -0.00820  -0.01414   2.09813
   A22        2.09676  -0.00188  -0.00721  -0.00350  -0.01067   2.08610
   A23        2.08834   0.00159   0.00531   0.00488   0.01017   2.09851
   A24        2.09808   0.00030   0.00189  -0.00138   0.00049   2.09858
   A25        2.08954   0.00116   0.00393   0.00313   0.00707   2.09661
   A26        2.09381  -0.00002  -0.00249   0.00261   0.00011   2.09392
   A27        2.09982  -0.00113  -0.00144  -0.00573  -0.00717   2.09265
   A28        2.11299  -0.00068   0.00023  -0.00382  -0.00361   2.10938
   A29        2.07717   0.00051  -0.00129   0.00397   0.00269   2.07986
   A30        2.09303   0.00017   0.00106  -0.00015   0.00091   2.09394
    D1        1.21758   0.00064  -0.00422  -0.09431  -0.09842   1.11916
    D2       -2.96338   0.00117   0.00334  -0.08557  -0.08192  -3.04531
    D3       -0.88538   0.00032  -0.00412  -0.09850  -0.10242  -0.98781
    D4       -2.94436  -0.00040  -0.00707  -0.11058  -0.11776  -3.06211
    D5       -0.84213   0.00012   0.00050  -0.10185  -0.10127  -0.94340
    D6        1.23587  -0.00073  -0.00696  -0.11477  -0.12177   1.11410
    D7       -0.81196  -0.00206  -0.01116  -0.13803  -0.14946  -0.96142
    D8        1.29027  -0.00153  -0.00359  -0.12929  -0.13297   1.15730
    D9       -2.91492  -0.00239  -0.01105  -0.14222  -0.15347  -3.06839
   D10        1.58369   0.00044   0.00137   0.00055   0.00199   1.58568
   D11       -1.52606   0.00064   0.00475   0.00905   0.01387  -1.51219
   D12       -0.50691  -0.00110  -0.00673  -0.01615  -0.02291  -0.52982
   D13        2.66653  -0.00090  -0.00334  -0.00764  -0.01104   2.65549
   D14       -2.59265   0.00037   0.00179   0.00106   0.00283  -2.58981
   D15        0.58079   0.00057   0.00518   0.00956   0.01471   0.59550
   D16       -3.10976   0.00011   0.00338   0.00395   0.00720  -3.10256
   D17        0.03073   0.00022   0.00327   0.00896   0.01213   0.04286
   D18        0.00052  -0.00007   0.00006  -0.00443  -0.00436  -0.00385
   D19        3.14101   0.00004  -0.00006   0.00058   0.00057   3.14158
   D20        3.11003  -0.00019  -0.00335  -0.00452  -0.00801   3.10202
   D21       -0.03113  -0.00028  -0.00331  -0.00911  -0.01254  -0.04367
   D22       -0.00083   0.00007  -0.00009   0.00395   0.00388   0.00305
   D23        3.14119  -0.00002  -0.00004  -0.00064  -0.00064   3.14055
   D24       -0.00155   0.00007  -0.00017   0.00426   0.00406   0.00251
   D25       -3.13875   0.00006   0.00030   0.00260   0.00290  -3.13585
   D26        3.14116  -0.00004  -0.00005  -0.00082  -0.00090   3.14026
   D27        0.00396  -0.00005   0.00042  -0.00247  -0.00206   0.00190
   D28        0.00288  -0.00007   0.00031  -0.00349  -0.00317  -0.00029
   D29       -3.13639  -0.00003   0.00055  -0.00215  -0.00159  -3.13797
   D30        3.14000  -0.00005  -0.00017  -0.00177  -0.00195   3.13805
   D31        0.00073  -0.00001   0.00008  -0.00043  -0.00036   0.00037
   D32       -0.00319   0.00007  -0.00034   0.00303   0.00270  -0.00050
   D33       -3.13993   0.00004   0.00017   0.00152   0.00167  -3.13827
   D34        3.13606   0.00003  -0.00059   0.00169   0.00112   3.13718
   D35       -0.00068   0.00000  -0.00007   0.00018   0.00009  -0.00059
   D36        0.00217  -0.00007   0.00023  -0.00329  -0.00309  -0.00091
   D37       -3.13985   0.00002   0.00018   0.00134   0.00147  -3.13838
   D38        3.13890  -0.00004  -0.00028  -0.00175  -0.00204   3.13686
   D39       -0.00313   0.00005  -0.00033   0.00288   0.00252  -0.00061
         Item               Value     Threshold  Converged?
 Maximum Force            0.006770     0.000450     NO 
 RMS     Force            0.001393     0.000300     NO 
 Maximum Displacement     0.181794     0.001800     NO 
 RMS     Displacement     0.039917     0.001200     NO 
 Predicted change in Energy=-8.558298D-04
 GradGradGradGradGradGradGradGradGradGradGradGradGradGradGradGradGradGrad

                          Input orientation:                          
 ---------------------------------------------------------------------
 Center     Atomic      Atomic             Coordinates (Angstroms)
 Number     Number       Type             X           Y           Z
 ---------------------------------------------------------------------
      1          6           0       -2.452037    0.194167    0.580282
      2          6           0       -1.627686   -0.209592   -0.647310
      3          6           0       -0.151139   -0.124294   -0.368784
      4          6           0        0.551943   -1.223280    0.117603
      5          6           0        1.906484   -1.128194    0.417591
      6          6           0        2.577621    0.073749    0.236903
      7          6           0        1.885478    1.179455   -0.245934
      8          6           0        0.533668    1.079193   -0.544796
      9          1           0       -2.279799    1.241416    0.831228
     10          1           0       -3.516075    0.053192    0.396354
     11          1           0       -2.166506   -0.406609    1.445171
     12          1           0       -1.888163   -1.227410   -0.938892
     13          1           0       -1.874249    0.450446   -1.479086
     14          1           0        0.032840   -2.165204    0.259514
     15          1           0        2.435054   -1.996809    0.789689
     16          1           0        3.633207    0.148820    0.466788
     17          1           0        2.402143    2.119061   -0.392447
     18          1           0       -0.002774    1.941903   -0.923875
 ---------------------------------------------------------------------
                    Distance matrix (angstroms):
                    1          2          3          4          5
     1  C    0.000000
     2  C    1.532827   0.000000
     3  C    2.509238   1.505006   0.000000
     4  C    3.353673   2.522585   1.392361   0.000000
     5  C    4.557610   3.803709   2.420747   1.390617   0.000000
     6  C    5.042804   4.306591   2.802180   2.408296   1.388431
     7  C    4.524098   3.799063   2.421294   2.771933   2.401239
     8  C    3.311119   2.518517   1.395823   2.395932   2.771889
     9  H    1.090582   2.171808   2.799354   3.821354   4.828158
    10  H    1.088982   2.173547   3.455392   4.272687   5.549799
    11  H    1.091098   2.169705   2.726140   3.133584   4.262141
    12  H    2.155627   1.090331   2.135214   2.659007   4.031034
    13  H    2.154185   1.090089   2.128897   3.352190   4.514800
    14  H    3.441532   2.721047   2.143344   1.084816   2.147304
    15  H    5.359841   4.665294   3.396582   2.143864   1.082744
    16  H    6.086472   5.389497   3.885106   3.390985   2.148200
    17  H    5.311731   4.661234   3.398890   3.854172   3.383269
    18  H    3.363920   2.710306   2.144599   3.377983   3.856201
                    6          7          8          9         10
     6  C    0.000000
     7  C    1.390963   0.000000
     8  C    2.408260   1.388079   0.000000
     9  H    5.031023   4.302749   3.136136   0.000000
    10  H    6.095817   5.554978   4.282390   1.769003   0.000000
    11  H    4.919085   4.668405   3.668585   1.762313   1.769964
    12  H    4.797785   4.529190   3.367640   3.062973   2.464330
    13  H    4.785986   4.023390   2.658248   2.475410   2.524021
    14  H    3.389592   3.856746   3.379919   4.156948   4.187459
    15  H    2.147814   3.385735   3.854596   5.719936   6.306597
    16  H    1.082933   2.150520   3.390581   6.024137   7.150269
    17  H    2.147132   1.082252   2.143766   4.918152   6.317858
    18  H    3.390552   2.146259   1.084315   2.959038   4.201609
                   11         12         13         14         15
    11  H    0.000000
    12  H    2.536720   0.000000
    13  H    3.061248   1.762726   0.000000
    14  H    3.055415   2.450692   3.674417   0.000000
    15  H    4.912509   4.719129   5.450366   2.465781   0.000000
    16  H    5.907826   5.861355   5.848887   4.284894   2.478620
    17  H    5.534293   5.468473   4.717265   4.938986   4.282396
    18  H    3.976131   3.687745   2.456648   4.274342   4.938902
                   16         17         18
    16  H    0.000000
    17  H    2.477025   0.000000
    18  H    4.285959   2.469297   0.000000
 Symmetry turned off by external request.
 Stoichiometry    C8H10
 Framework group  C1[X(C8H10)]
 Deg. of freedom    48
 Full point group                 C1      NOp   1
 Rotational constants (GHZ):           4.5479197           1.4830087           1.2298251
 Standard basis: def2TZVP (5D, 7F)
   308 basis functions,   488 primitive gaussians,   348 cartesian basis functions
    29 alpha electrons       29 beta electrons
       nuclear repulsion energy       341.4001834123 Hartrees.
 NAtoms=   18 NActive=   18 NUniq=   18 SFac= 1.00D+00 NAtFMM=   60 NAOKFM=F Big=F
 Integral buffers will be    131072 words long.
 Raffenetti 2 integral format.
 Two-electron integral symmetry is turned off.
 ------------------------------------------------------------------------------
 Polarizable Continuum Model (PCM)
 =================================
 Model                : PCM.
 Atomic radii         : SMD-Coulomb.
 Polarization charges : Total charges.
 Charge compensation  : None.
 Solution method      : On-the-fly selection.
 Cavity type          : VdW (van der Waals Surface) (Alpha=1.000).
 Cavity algorithm     : GePol (No added spheres)
                        Default sphere list used, NSphG=   18.
                        Lebedev-Laikov grids with approx.  5.0 points / Ang**2.
                        Smoothing algorithm: York/Karplus (Gamma=1.0000).
                        Polarization charges: spherical gaussians, with
                                              point-specific exponents (IZeta= 3).
                        Self-potential: point-specific (ISelfS= 7).
                        Self-field    : sphere-specific E.n sum rule (ISelfD= 2).
 1st derivatives      : Analytical E(r).r(x)/FMM algorithm (CHGder, D1EAlg=3).
                        Cavity 1st derivative terms included.
 Solvent              : Water, Eps=  78.355300 Eps(inf)=   1.777849
 ------------------------------------------------------------------------------
 Spheres list:
 ISph  on   Nord     Re0    Alpha      Xe            Ye            Ze
    1   C      1    1.8500  1.000     -2.452037      0.194167      0.580282
    2   C      2    1.8500  1.000     -1.627686     -0.209592     -0.647310
    3   C      3    1.8500  1.000     -0.151139     -0.124294     -0.368784
    4   C      4    1.8500  1.000      0.551943     -1.223280      0.117603
    5   C      5    1.8500  1.000      1.906484     -1.128194      0.417591
    6   C      6    1.8500  1.000      2.577621      0.073749      0.236903
    7   C      7    1.8500  1.000      1.885478      1.179455     -0.245934
    8   C      8    1.8500  1.000      0.533668      1.079193     -0.544796
    9   H      9    1.2000  1.000     -2.279799      1.241416      0.831228
   10   H     10    1.2000  1.000     -3.516075      0.053192      0.396354
   11   H     11    1.2000  1.000     -2.166506     -0.406609      1.445171
   12   H     12    1.2000  1.000     -1.888163     -1.227410     -0.938892
   13   H     13    1.2000  1.000     -1.874249      0.450446     -1.479086
   14   H     14    1.2000  1.000      0.032840     -2.165204      0.259514
   15   H     15    1.2000  1.000      2.435054     -1.996809      0.789689
   16   H     16    1.2000  1.000      3.633207      0.148820      0.466788
   17   H     17    1.2000  1.000      2.402143      2.119061     -0.392447
   18   H     18    1.2000  1.000     -0.002774      1.941903     -0.923875
 ------------------------------------------------------------------------------
 ------------------------------------------------------------------------------
 Atomic radii for non-electrostatic terms: SMD-CDS.
 ------------------------------------------------------------------------------
 Nuclear repulsion after PCM non-electrostatic terms =      341.4058196032 Hartrees.
 One-electron integrals computed using PRISM.
   1 Symmetry operations used in ECPInt.
 ECPInt:  NShTT=    8256 NPrTT=   24516 LenC2=    8081 LenP2D=   19336.
 LDataN:  DoStor=T MaxTD1= 6 Len=  172
 NBasis=   308 RedAO= T EigKep=  8.31D-06  NBF=   308
 NBsUse=   308 1.00D-06 EigRej= -1.00D+00 NBFU=   308
 Initial guess from the checkpoint file:  "mol1.chk"
 B after Tr=     0.001183    0.002506    0.001653
         Rot=    0.999999    0.001274   -0.000586   -0.000346 Ang=   0.17 deg.
 ExpMin= 9.52D-02 ExpMax= 1.36D+04 ExpMxC= 4.63D+02 IAcc=3 IRadAn=         5 AccDes= 0.00D+00
 Harris functional with IExCor= 1009 and IRadAn=       5 diagonalized for initial guess.
 HarFok:  IExCor= 1009 AccDes= 0.00D+00 IRadAn=         5 IDoV= 1 UseB2=F ITyADJ=14
 ICtDFT=  3500011 ScaDFX=  1.000000  1.000000  1.000000  1.000000
 FoFCou: FMM=F IPFlag=           0 FMFlag=      100000 FMFlg1=           0
         NFxFlg=           0 DoJE=T BraDBF=F KetDBF=T FulRan=T
         wScrn=  0.000000 ICntrl=       500 IOpCl=  0 I1Cent=   200000004 NGrid=           0
         NMat0=    1 NMatS0=      1 NMatT0=    0 NMatD0=    1 NMtDS0=    0 NMtDT0=    0
 Symmetry not used in FoFCou.
 Requested convergence on RMS density matrix=1.00D-08 within 128 cycles.
 Requested convergence on MAX density matrix=1.00D-06.
 Requested convergence on             energy=1.00D-06.
 No special actions if energy rises.
 Inv3:  Mode=1 IEnd=     5838075.
 Iteration    1 A*A^-1 deviation from unit magnitude is 4.00D-15 for   1380.
 Iteration    1 A*A^-1 deviation from orthogonality  is 2.19D-15 for   1300    466.
 Iteration    1 A^-1*A deviation from unit magnitude is 4.44D-15 for   1380.
 Iteration    1 A^-1*A deviation from orthogonality  is 1.38D-15 for   1393   1341.
 Error on total polarization charges =  0.05032
 SCF Done:  E(RM062X) =  -310.843092915     A.U. after   10 cycles
            NFock= 10  Conv=0.61D-08     -V/T= 2.0051
 SMD-CDS (non-electrostatic) energy       (kcal/mol) =       3.54
 (included in total energy above)
   1 Symmetry operations used in ECPInt.
 ECPInt:  NShTT=    8256 NPrTT=   24516 LenC2=    8081 LenP2D=   19336.
 LDataN:  DoStor=T MaxTD1= 7 Len=  274
 D1PCM: PCM CHGder 1st derivatives, ID1Alg=3 FixD1E=F DoIter=F DoCFld=F I1PDM=0.
 Calling FoFJK, ICntrl=      2127 FMM=F ISym2X=0 I1Cent= 0 IOpClX= 0 NMat=1 NMatS=1 NMatT=0.
 -------------------------------------------------------------------
 Center     Atomic                   Forces (Hartrees/Bohr)
 Number     Number              X              Y              Z
 -------------------------------------------------------------------
      1        6           0.002454131   -0.000752884   -0.001507013
      2        6          -0.000292811    0.001001069    0.003053985
      3        6          -0.000061629    0.001621220   -0.000688099
      4        6           0.000734404   -0.000538537    0.000346058
      5        6          -0.001127728   -0.000468259   -0.000071948
      6        6           0.000139114    0.000648324   -0.000200238
      7        6           0.000530259   -0.000755122    0.000357655
      8        6          -0.000418099   -0.001133282    0.000198082
      9        1           0.000085211    0.000617659   -0.000009387
     10        1          -0.001103387    0.000260799    0.000057420
     11        1          -0.000644950   -0.000731340    0.000146571
     12        1           0.000181924   -0.000611601   -0.000338718
     13        1          -0.000778346   -0.000087144   -0.001094622
     14        1           0.000032291    0.000171223   -0.000103687
     15        1           0.000330664    0.000028604    0.000081740
     16        1          -0.000239887    0.000056606   -0.000050984
     17        1           0.000200377    0.000479039   -0.000086778
     18        1          -0.000021538    0.000193626   -0.000090035
 -------------------------------------------------------------------
 Cartesian Forces:  Max     0.003053985 RMS     0.000785420

 GradGradGradGradGradGradGradGradGradGradGradGradGradGradGradGradGradGrad
 Berny optimization.
 Using GEDIIS/GDIIS optimizer.
 FormGI is forming the generalized inverse of G from B-inverse, IUseBI=4.
 Internal  Forces:  Max     0.001638273 RMS     0.000345988
 Search for a local minimum.
 Step number   3 out of a maximum of   97
 All quantities printed in internal units (Hartrees-Bohrs-Radians)
 Mixed Optimization -- En-DIIS/RFO-DIIS
 Update second derivatives using D2CorX and points    2    3
 DE= -9.74D-04 DEPred=-8.56D-04 R= 1.14D+00
 TightC=F SS=  1.41D+00  RLast= 3.69D-01 DXNew= 8.4853D-01 1.1067D+00
 Trust test= 1.14D+00 RLast= 3.69D-01 DXMaxT set to 8.49D-01
 ITU=  1  1  0
 Use linear search instead of GDIIS.
     Eigenvalues ---    0.00295   0.00979   0.01760   0.02239   0.02261
     Eigenvalues ---    0.02290   0.02318   0.02337   0.02379   0.02398
     Eigenvalues ---    0.02419   0.04431   0.05139   0.05526   0.05639
     Eigenvalues ---    0.09192   0.12673   0.15467   0.15999   0.16000
     Eigenvalues ---    0.16000   0.16000   0.16000   0.16091   0.16198
     Eigenvalues ---    0.21149   0.22001   0.22322   0.23685   0.24386
     Eigenvalues ---    0.29092   0.30893   0.32434   0.32697   0.32891
     Eigenvalues ---    0.33611   0.34228   0.34353   0.34958   0.35696
     Eigenvalues ---    0.35844   0.36414   0.43206   0.44335   0.47846
     Eigenvalues ---    0.48521   0.49825   0.50505
 RFO step:  Lambda=-1.06612988D-04 EMin= 2.95210536D-03
 Quartic linear search produced a step of  0.30970.
 Iteration  1 RMS(Cart)=  0.02640513 RMS(Int)=  0.00089477
 Iteration  2 RMS(Cart)=  0.00092324 RMS(Int)=  0.00002554
 Iteration  3 RMS(Cart)=  0.00000080 RMS(Int)=  0.00002553
[...]
 .0074755,0.0107998,0.0407734,0.0401398,0.0392817,-0.0611525,0.0436467,
 -0.068993,-0.1555179,-0.1997606,-0.0140306,0.0298122,-0.1573447,0.0144
 586,-0.0949756,0.0421768,-0.0611535,-0.1605202,0.0629177,-0.0673327,0.
 0015685,-0.0264962,-0.1384016,-0.0971965,0.0252506,-0.0579956,0.032782
 5,-0.2499615,-0.0041702,-0.009602,0.0027579,0.1002235,-0.0143707,0.013
 8388,-0.0145395,0.0554272,0.0631359,0.0581397,-0.0376956,0.0368743,-0.
 0157036,0.1294942,0.0052156,0.0895184,-0.0888637,-0.0195535,-0.0135035
 ,-0.0063655,-0.0638162,-0.1335192,-0.102106,-0.0311572,-0.0703974,0.03
 61605,-0.0175924,0.0081739,-0.0144328,0.0373091,-0.004458,0.1296394,-0
 .0622309,0.0962824,-0.09374,0.0524927,-0.10181,-0.0039862,-0.095749,-0
 .0433396,0.0474437,-0.009053,0.0395123,0.1718771,0.0548195,0.0767728,-
 0.0532423,0.0793465,-0.0199002,0.0807789,-0.057587,0.0766341,0.1504866
 ,-0.0861171,-0.0187704,-0.0607311,-0.0194243,0.1110547,0.0209526,-0.06
 19564,0.0210267,0.1729156,0.0557116,-0.0904317,-0.0014978,-0.0970385,-
 0.039415,0.0475894,-0.0050515,0.0484051,0.1704816,0.0517193,0.0847605,
 -0.0614602,0.0752945,-0.0174888,0.0802411,-0.0600442,0.0848902,0.14639
 33\Polar=157.255492,3.536915,141.357819,11.1022956,-14.6828123,97.8079
 88\Quadrupole=1.9684769,1.8905674,-3.8590443,0.5144263,1.6868887,-1.93
 45145\PG=C01 [X(C8H10)]\NImag=0\\0.55183756,0.01371908,0.56765141,0.04
 685915,-0.02023286,0.50477654,-0.10492335,0.01407364,0.04737946,0.4796
 1013,0.01583283,-0.08283282,-0.02409829,0.01292272,0.60841241,0.053254
 23,-0.02407558,-0.15718989,0.04516988,-0.03055074,0.51545995,-0.028238
 01,0.00199750,0.00713209,-0.20896031,-0.01087988,-0.03500328,0.6320591
 5,0.00816650,0.00060010,0.00229463,-0.00963527,-0.09012403,0.00303514,
 0.02800121,0.63393676,0.02771499,0.00237133,0.00744227,-0.03057247,0.0
 0308849,-0.08068613,0.09032276,-0.13082070,0.24744818,-0.00020864,0.00
 091452,-0.00310113,-0.02002898,0.02524893,-0.01353181,-0.17100414,0.03
 470974,-0.03458195,0.67293163,-0.00141365,-0.00001231,0.00066817,0.002
 73977,0.00490326,-0.00057290,0.10528155,-0.24728724,0.07971807,0.06999
 096,0.67476721,0.00060175,0.00050203,-0.00094349,-0.00747473,0.0047611
 4,0.00177198,-0.05596679,0.06089276,-0.10345951,0.10641161,-0.14401702
 ,0.21154284,0.00021134,-0.00087235,0.00093426,0.00275315,0.00232657,-0
 .00293914,-0.02466121,0.07998744,-0.03221797,-0.32917545,-0.05247726,-
 0.04639687,0.66306550,-0.00053827,-0.00044935,0.00019371,0.00070283,-0
 .00305505,0.00391435,0.02574587,0.04708777,-0.00678039,0.01742806,-0.1
 2778113,0.02322238,0.00210730,0.68080471,-0.00131636,0.00010002,-0.000
 27394,-0.00116721,0.00266860,0.00538273,-0.01562935,0.00750902,0.00165
 898,-0.06828916,0.00560601,-0.08535091,0.12450264,-0.16275006,0.223529
 25,-0.00046614,-0.00033487,-0.00113218,-0.00098017,0.00038979,0.001365
 14,0.00202590,0.00059399,0.00154689,-0.02552215,-0.02956644,0.00058924
 ,-0.17834838,-0.12659991,0.01223862,0.72517184,-0.00000915,0.00101329,
 -0.00037899,-0.00008296,-0.00151476,0.00023445,0.00091170,-0.07841769,
 0.02174126,-0.08370218,0.03018258,-0.02771222,-0.05661510,-0.28024664,
 0.05135486,0.03910255,0.62536760,0.00001963,-0.00037422,-0.00010056,-0
 .00019628,0.00023216,-0.00079698,0.00251125,0.02171747,-0.01400382,0.0
 1693897,-0.01342598,0.01776170,-0.00892270,0.03460739,-0.08052590,0.12
 872948,-0.13905221,0.21457075,0.00017622,0.00123274,0.00028363,0.00273
 142,-0.00351801,-0.00117107,-0.02443530,-0.08449162,0.01809914,-0.0587
 3440,0.02785622,-0.02189547,0.07106554,0.03162826,0.00529201,-0.179153
 55,0.04233173,-0.03973921,0.66307169,-0.00029307,-0.00053452,-0.000022
 31,-0.00118312,-0.00343583,0.00207873,-0.03028613,0.03213921,-0.013954
 70,0.02988105,-0.01573234,0.01013398,-0.02281609,-0.05516633,0.0141153
 1,0.11224057,-0.25772887,0.08533074,0.06735036,0.68973324,-0.00140645,
 0.00005541,-0.00019590,-0.00060198,0.00333942,0.00583094,0.00154734,-0
 .02822392,0.01620734,-0.02161800,0.00933872,-0.01595322,0.02189000,0.0
 2737673,0.00619529,-0.06124531,0.06851764,-0.10364442,0.10470904,-0.15
 125132,0.21601571,-0.00022256,-0.00244506,-0.00206995,-0.01982989,-0.0
 2851833,0.00301622,-0.17066992,-0.04794700,-0.00887279,0.06866962,-0.0
 2045895,0.02174246,-0.05858783,-0.03703086,-0.00114474,-0.02566301,0.0
 7872586,-0.03270529,-0.32855649,-0.05320571,-0.04661741,0.67177303,0.0
 0150473,-0.00083694,-0.00074857,-0.00645685,0.00182806,0.00053800,-0.1
 1847692,-0.26760230,0.03145917,0.02954477,-0.05332277,0.02702860,-0.03
 548474,-0.02502512,-0.00334568,0.02465533,0.04569153,-0.00532288,0.017
 04368,-0.12809545,0.02271537,0.00141692,0.66325579,-0.00029487,-0.0005
 8588,-0.00012692,-0.00464645,-0.00482949,0.00475135,0.01280304,0.05027
 338,-0.08312709,0.00645679,0.01380243,0.00704227,-0.00249311,-0.004140
 77,-0.00688240,-0.01602242,0.00896004,0.00258548,-0.06740257,0.0051212
 2,-0.08502344,0.12690750,-0.16082789,0.22228697,-0.05902330,-0.0541226
 9,-0.01773001,0.00209971,0.01738187,0.00558104,0.00153162,0.00096826,-
 0.00010410,-0.00015713,0.00005078,-0.00024909,0.00012725,0.00013821,0.
 00001365,0.00007563,-0.00017000,0.00007608,-0.00021881,0.00004086,-0.0
 0005938,0.00028439,-0.00008327,-0.00003392,0.06022993,-0.05287777,-0.2
 8259353,-0.07122628,-0.00091972,-0.00666594,-0.00226033,-0.00085819,0.
 00067629,0.00014238,0.00049857,-0.00013571,0.00017401,-0.00028590,-0.0
 0014402,-0.00006456,0.00009117,0.00025579,-0.00007310,0.00024489,-0.00
 007443,0.00009537,0.00019627,0.00010221,0.00010996,0.05743020,0.304111
 32,-0.01702390,-0.07003883,-0.06735763,-0.00478443,-0.02636641,-0.0092
 9760,-0.00165465,0.00055209,0.00047745,0.00057174,-0.00006889,0.000298
 68,-0.00040816,-0.00027202,-0.00006729,0.00002476,0.00041269,-0.000135
 19,0.00044661,-0.00006494,0.00009976,-0.00023705,-0.00010182,0.0001182
 4,0.01527495,0.08011465,0.07338085,-0.30598753,-0.01709405,-0.05383043
 ,-0.01531769,-0.00124862,-0.00401216,-0.00013053,0.00110361,0.00372317
 ,-0.00030584,-0.00035516,0.00018399,0.00003036,-0.00007883,-0.00019871
 ,-0.00031322,-0.00002277,-0.00004890,0.00001418,-0.00004244,-0.0002147
 0,-0.00031092,0.00040402,-0.00004027,-0.00494571,-0.00028000,-0.001012
 81,0.33126911,-0.01765526,-0.04871749,-0.00314750,0.00844642,-0.000558
 41,0.00177346,0.00030968,0.00096517,-0.00173458,0.00042258,-0.00003081
 ,0.00020478,-0.00046553,-0.00021074,-0.00003788,0.00009332,0.00042215,
 -0.00011667,0.00038592,-0.00002980,0.00029071,0.00001815,-0.00009946,0
 .00002680,-0.02919249,-0.00029987,-0.00569999,0.01808879,0.04660177,-0
 .05571305,-0.00316015,-0.05766203,0.02853149,0.00187812,0.00480769,0.0
 0102599,-0.00174357,-0.00439966,0.00068014,0.00011770,0.00025105,-0.00
 000745,0.00003386,0.00036293,0.00031824,-0.00011456,0.00007689,-0.0002
 6182,0.00023257,0.00018668,0.00081739,0.00011532,0.00031576,-0.0080299
 7,0.00030212,-0.00260726,0.05680862,0.00486499,0.06078797,-0.05980203,
 0.03663727,-0.04566231,0.00223122,-0.01144791,0.01417351,0.00154622,-0
 .00088104,0.00043957,0.00026777,0.00006490,-0.00004721,-0.00022677,-0.
 00007251,-0.00002922,0.00007915,0.00019104,-0.00003481,0.00013458,-0.0
 0010889,0.00009219,-0.00016833,-0.00018228,-0.00017664,0.00080503,-0.0
 0437388,0.00603291,-0.00513857,0.01998650,-0.02268195,0.06109131,0.035
 99390,-0.15274109,0.12692688,-0.00188403,0.00552760,-0.00740170,-0.000
 17512,0.00028602,-0.00001294,-0.00028315,0.00009979,-0.00011280,0.0000
 3725,-0.00003881,-0.00000773,-0.00006203,-0.00001352,-0.00000324,0.000
 01765,0.00003045,-0.00000153,-0.00011137,-0.00005013,0.00005880,0.0071
 5248,-0.01713580,0.02222072,-0.00037978,0.00161688,-0.00312840,-0.0408
 5962,0.16091888,-0.04440915,0.12578616,-0.19636345,-0.00465059,0.01655
 632,-0.02170547,-0.00186123,-0.00043499,0.00083515,-0.00009829,0.00011
 230,0.00011038,0.00051805,0.00016586,0.00006747,0.00006871,-0.00049989
 ,0.00014657,-0.00050818,0.00020424,-0.00024491,0.00075828,0.00031057,0
 .00021511,0.00270742,-0.00585823,0.00782033,-0.00101508,0.00296518,-0.
 00433748,0.04555404,-0.13726137,0.21577854,0.00337157,0.01826759,0.006
 22189,-0.05986829,-0.05477772,-0.02015908,-0.01004260,-0.03151370,-0.0
 0857294,0.00119495,-0.00108685,0.00112502,0.00004195,-0.00008434,0.000
 33306,-0.00018041,-0.00007229,-0.00015616,-0.00065928,-0.00099865,0.00
 114466,-0.00505167,0.00104789,-0.00202458,-0.00138649,0.00082110,0.003
 64886,0.00064145,-0.00010053,-0.00089408,0.00050518,-0.00064350,-0.000
 66093,0.07017219,-0.00090233,-0.00646753,-0.00248335,-0.05754271,-0.27
 977179,-0.06866307,-0.00033431,-0.00161777,0.00072768,0.00198545,0.000
 64753,0.00098697,-0.00076555,0.00015385,0.00034345,0.00010256,0.000522
 43,-0.00012674,0.00039395,-0.00037166,0.00021376,-0.00106925,0.0004905
 8,-0.00070264,0.00103695,0.00121210,-0.00119651,0.00029528,0.00024067,
 0.00015063,0.00001493,0.00074383,-0.00012209,0.06134507,0.30073430,-0.
 00474694,-0.02686819,-0.00982746,-0.02053051,-0.06667223,-0.06829494,-
 0.00012404,-0.00485281,-0.00204781,0.00004375,-0.00017867,0.00046452,-
 0.00004772,-0.00021030,-0.00002224,-0.00020622,0.00026705,-0.00015393,
 0.00045828,-0.00027431,0.00031667,-0.00082965,0.00022184,0.00026130,0.
 00328959,-0.00135395,-0.00393432,-0.00032662,0.00067578,0.00123755,-0.
 00100274,0.00042220,0.00122047,0.01766201,0.07722412,0.07288575,0.0034
 5489,-0.01183025,0.01518753,-0.06054072,0.03564289,-0.04793779,-0.0102
 0375,0.02161994,-0.02438776,-0.00508121,-0.00201771,-0.00111336,-0.000
 64165,0.00147839,0.00035593,-0.00017354,-0.00003711,-0.00016162,0.0000
 3126,0.00025373,0.00021786,0.00122869,0.00149836,0.00036030,0.00050793
 ,0.00016862,-0.00091205,0.00065151,-0.00039814,-0.00080669,-0.00137622
 ,0.00127742,0.00348918,0.00129569,-0.00432405,0.00634849,0.07086970,-0
 .00185953,0.00585998,-0.00775513,0.03781746,-0.15399721,0.12459827,0.0
 0011347,0.00026129,-0.00229387,0.00038476,0.00064190,0.00044622,-0.000
 07538,-0.00011871,0.00009628,-0.00019246,0.00023652,-0.00013701,0.0005
 8808,0.00004475,-0.00038469,-0.00164798,0.00021877,-0.00081342,-0.0005
 6394,0.00075383,0.00043708,-0.00042175,0.00015193,0.00054764,0.0009062
 5,0.00085705,-0.00189201,0.00726590,-0.01678734,0.02159368,-0.04251596
 ,0.16127936,-0.00459957,0.01649385,-0.02227957,-0.04977438,0.12266241,
 -0.19339832,-0.00030121,0.00340123,-0.00381188,-0.00126592,-0.00047233
 ,0.00013394,0.00059460,0.00057438,0.00007541,-0.00011725,-0.00052663,0
 .00011987,-0.00045101,0.00016172,0.00009069,0.00112796,0.00031415,0.00
 086967,-0.00082436,-0.00011285,0.00121912,-0.00011881,0.00001970,0.001
 31332,0.00330532,-0.00173207,-0.00354866,0.00298092,-0.00541495,0.0078
 6214,0.04956801,-0.13496337,0.21166578,0.00003734,0.00004847,-0.000091
 55,0.00055989,0.00104897,0.00092553,0.00997751,0.01301745,-0.00267303,
 -0.12281824,-0.11815040,0.01511015,-0.00992317,-0.02726500,0.00504617,
 -0.00471540,0.00042930,-0.00312986,-0.00068253,0.00056024,-0.00012114,
 -0.00060338,0.00256072,-0.00263920,0.00002176,-0.00001118,-0.00000868,
 0.00000253,-0.00003511,0.00001677,0.00001922,-0.00007890,0.00005494,0.
 00031895,-0.00016714,0.00000510,0.00010877,-0.00002702,0.00006984,0.12
 657567,0.00037978,-0.00000241,0.00001031,-0.00107369,0.00066101,-0.001
 62150,-0.01370535,-0.01716322,0.00304766,-0.11819514,-0.26619451,0.039
 94831,0.00128829,0.00233572,0.00081687,-0.00038365,0.00237643,0.001457
 21,0.00083605,0.00004996,-0.00007410,0.00296550,-0.00186450,0.00336993
 ,-0.00002681,0.00001181,0.00001932,0.00007282,-0.00001476,-0.00012436,
 0.00009297,-0.00010159,-0.00003680,0.00056652,0.00013027,0.00018314,-0
 .00012575,0.00026470,0.00008048,0.12795184,0.28038085,0.00036843,-0.00
 007595,0.00012540,0.00177167,-0.00042234,-0.00300458,0.00469825,0.0098
 7207,0.00267298,0.01532562,0.03934023,-0.04728270,-0.00359562,-0.00613
 845,0.00479860,-0.00288663,0.00163382,0.00642424,-0.00029769,-0.000135
 47,-0.00088720,-0.00263851,0.00346749,0.00524249,-0.00000245,0.0000084
 9,0.00004016,0.00004673,0.00005502,-0.00016220,0.00003552,0.00002882,-
 0.00005181,-0.00019064,-0.00064416,-0.00003610,-0.00029320,-0.00002542
 ,0.00002042,-0.01413510,-0.04559164,0.03662987,-0.00010441,-0.00004165
 ,-0.00014795,-0.00001969,0.00123721,-0.00052581,-0.00455795,-0.0020158
 9,-0.00221587,-0.00961299,0.02552973,-0.01104943,-0.12484272,0.1089769
 3,-0.05387626,0.01140991,-0.01357685,0.00585599,-0.00038684,-0.0034812
 1,-0.00081628,-0.00081603,-0.00074942,0.00022451,0.00000229,0.00001722
 ,0.00001824,-0.00006685,0.00002094,0.00008748,0.00000956,-0.00000074,0
 .00003516,0.00002511,-0.00004654,0.00001045,-0.00047103,0.00004447,-0.
 00008482,0.00117958,-0.00003567,0.00133266,0.12725380,0.00006450,0.000
 00307,0.00006118,-0.00012271,0.00010155,-0.00011321,-0.00158637,0.0021
 2955,0.00137285,-0.00309697,0.00560836,-0.00116727,0.10897639,-0.23901
 530,0.08667524,0.01499539,-0.01587493,0.00967076,-0.00415575,-0.002624
 54,0.00206421,-0.00064878,-0.00001296,-0.00044158,-0.00000088,-0.00001
 003,-0.00000666,0.00002390,-0.00002404,-0.00002119,-0.00000145,0.00000
 051,0.00000597,0.00003108,-0.00001312,0.00000196,0.00002652,0.00000181
 ,-0.00002434,0.00076022,0.00024342,-0.00120087,-0.11651885,0.24959791,
 0.00000836,-0.00002975,-0.00006041,0.00021431,0.00035020,-0.00006362,-
 0.00274245,0.00140537,0.00667988,-0.00244800,0.00560638,0.00192269,-0.
 05381700,0.08659242,-0.07867673,-0.00280491,0.00290160,0.00265452,-0.0
 0057612,0.00218480,0.00662849,0.00016625,-0.00048030,-0.00070279,0.000
 00499,-0.00000325,0.00000040,-0.00003076,-0.00003106,0.00002846,0.0000
 1497,-0.00001540,0.00002058,-0.00003491,-0.00003856,-0.00003265,-0.000
 04406,-0.00000186,-0.00007693,0.00112325,-0.00138097,-0.00364849,0.059
 80311,-0.09559281,0.06998688,-0.00004358,-0.00001070,-0.00003291,-0.00
 003888,0.00006223,0.00019851,0.00044536,0.00010019,0.00029863,0.000983
 57,-0.00316102,-0.00059207,-0.00980392,0.00155054,-0.00369261,-0.33000
 655,-0.01990268,-0.06394315,-0.00984685,-0.00339708,-0.00219757,0.0009
 7195,0.00228961,-0.00226760,-0.00000093,0.00000423,0.00000217,-0.00002
 776,0.00000835,0.00002852,-0.00000095,-0.00000218,0.00000423,-0.000019
 69,0.00000615,-0.00000398,-0.00002044,-0.00000647,-0.00000023,-0.00059
 903,0.00010987,-0.00022086,0.00055895,0.00027584,0.00108100,0.34749457
 ,0.00003920,0.00001804,-0.00000554,0.00011292,0.00013872,-0.00032241,0
 .00005594,-0.00121254,0.00011966,-0.00242572,-0.00371759,0.00280539,-0
 .02711944,0.00270275,-0.00621374,-0.01990334,-0.05858208,0.00139327,0.
 02523392,0.00601871,0.00533486,0.00159620,-0.00303468,0.00359029,-0.00
 000570,0.00000139,0.00000962,0.00000585,0.00000049,-0.00001314,0.00000
 818,-0.00000346,-0.00000835,0.00004510,-0.00000213,0.00001812,-0.00007
 953,0.00005881,-0.00003651,-0.00134729,-0.00003320,-0.00028737,0.00111
 487,0.00088892,-0.00129729,0.02190683,0.05585654,0.00012625,-0.0000032
 9,0.00000196,0.00037243,-0.00032364,-0.00081729,0.00016989,0.00012525,
 -0.00086197,-0.00074895,0.00260308,0.00642160,0.00499238,0.00056342,0.
 00468228,-0.06390214,0.00138471,-0.05423289,-0.01107726,-0.00144824,0.
 00143601,-0.00200009,0.00379736,0.00576536,0.00000542,0.00000002,-0.00
 000049,0.00001937,-0.00001188,-0.00003840,0.00000158,0.00000240,0.0000
 0324,-0.00007560,-0.00012997,0.00003188,-0.00003527,0.00010795,-0.0000
 2912,0.00019980,0.00006950,0.00016993,0.00082424,-0.00149235,-0.003606
 08,0.07040209,-0.00373422,0.04457291,-0.00010807,-0.00004765,-0.000147
 84,-0.00001477,-0.00131823,0.00025632,-0.00459916,0.00040446,-0.002968
 60,-0.00081746,0.00075559,-0.00023136,-0.00040213,0.00244119,-0.002643
 32,0.01144336,0.01461681,-0.00275947,-0.12456198,-0.11987929,0.0163509
 7,-0.00953708,-0.02738662,0.00514435,0.00000949,0.00002076,0.00002932,
 -0.00006711,0.00003040,0.00008556,0.00000313,-0.00000460,0.00002443,-0
 .00046958,-0.00008575,-0.00004554,0.00002592,0.00004540,-0.00001729,0.
 00004788,-0.00006073,0.00031897,0.00039290,0.00075755,-0.00015011,0.00
 055376,-0.00045990,0.00131425,0.12692107,-0.00005008,-0.00002960,-0.00
 008088,0.00022302,-0.00006408,0.00011093,-0.00023735,0.00227173,0.0015
 8587,0.00062782,0.00020002,-0.00016432,0.00311880,-0.00167710,0.003552
 89,-0.01391125,-0.01588925,0.00285157,-0.11985639,-0.26985319,0.041972
 32,0.00118300,0.00231436,0.00087097,0.00000872,0.00001124,0.00000107,-
 0.00003710,0.00001627,0.00002973,0.00000375,-0.00000234,0.00000801,-0.
 00004848,-0.00001128,-0.00001944,-0.00004437,-0.00000206,-0.00002261,-
 0.00005196,-0.00013605,-0.00034138,-0.00070382,-0.00090007,0.00011955,
 0.00038147,0.00076826,-0.00146559,0.12938955,0.28275337,0.00003770,0.0
 0001270,-0.00002567,0.00011445,-0.00035597,0.00009850,-0.00315974,0.00
 157934,0.00653780,-0.00021990,-0.00014526,-0.00091179,-0.00281259,0.00
 342336,0.00573289,0.00602225,0.00966372,0.00267918,0.01638697,0.042045
 02,-0.04860528,-0.00370759,-0.00592647,0.00516280,0.00000989,0.0000210
 9,0.00001080,-0.00001373,0.00004020,-0.00001082,0.00000363,0.00000487,
 -0.00000812,-0.00002330,-0.00004372,-0.00006159,-0.00001228,0.00001743
 ,-0.00004401,0.00031590,-0.00032802,-0.00101669,0.00029513,0.00048328,
 -0.00000501,0.00105413,-0.00166079,-0.00350807,-0.01564298,-0.04761043
 ,0.03760159,0.00003869,-0.00009155,-0.00005174,0.00053723,-0.00038527,
 0.00133976,0.00991712,-0.01218826,0.00502230,-0.00058093,-0.00358204,-
 0.00074785,-0.00068187,-0.00052787,0.00020484,-0.00468326,-0.00211791,
 -0.00233394,-0.00998886,0.02536487,-0.01105386,-0.12291059,0.10685407,
 -0.05385485,0.00003734,0.00011362,-0.00000782,0.00000257,0.00003600,-0
 .00000519,0.00002049,0.00000633,-0.00001098,0.00011096,0.00005727,0.00
 004627,0.00033420,0.00014471,-0.00009182,0.00049264,-0.00065686,0.0003
 6285,0.00004641,0.00022036,0.00023207,-0.00059958,0.00122190,-0.000588
 41,0.00117985,0.00000467,0.00135205,0.12672759,-0.00010144,0.00007170,
 0.00002481,0.00186230,0.00044732,-0.00070188,0.01412270,-0.01692911,0.
 01022277,-0.00393403,-0.00283625,0.00206704,-0.00086471,-0.00015651,-0
 .00041890,-0.00131074,0.00219941,0.00137147,-0.00312168,0.00563065,-0.
 00137898,0.10698137,-0.23395699,0.08615786,-0.00004253,-0.00007662,0.0
 0004884,-0.00003378,-0.00002994,0.00003267,0.00002178,0.00000573,-0.00
 000089,-0.00006419,0.00016704,-0.00017799,-0.00059300,0.00027463,-0.00
 040226,0.00075680,-0.00094392,0.00045711,0.00022928,-0.00010011,-0.000
 28906,-0.00021517,0.00013304,-0.00004450,0.00078108,0.00022977,-0.0012
 2033,-0.11447405,0.24587017,0.00051977,0.00012320,0.00006076,0.0008453
 4,-0.00191775,-0.00284831,-0.00376787,0.00341824,0.00243783,-0.0005255
 2,0.00196795,0.00617998,0.00022640,-0.00037586,-0.00068642,-0.00258628
 ,0.00121266,0.00657447,-0.00229529,0.00554296,0.00154679,-0.05371301,0
 .08678574,-0.07875414,0.00007024,-0.00001553,-0.00006599,0.00008111,-0
 .00013706,-0.00015045,-0.00001837,0.00001247,0.00004206,-0.00032420,-0
 .00008083,0.00013076,0.00017679,0.00042224,-0.00018186,-0.00006890,0.0
 0015465,-0.00003432,0.00022946,-0.00027517,-0.00104919,-0.00011832,0.0
 0030815,0.00000914,0.00108234,-0.00139828,-0.00362650,0.06018631,-0.09
 574778,0.07041541\\0.00002788,0.00000610,-0.00001155,0.00000330,-0.000
 04808,0.00004358,0.00001135,0.00008535,-0.00001546,0.00005898,-0.00004
 274,0.00001988,-0.00008745,-0.00001727,-0.00001565,0.00002951,0.000060
 01,-0.00001080,0.00001968,-0.00005819,0.00003043,-0.00004187,-0.000042
 27,0.00000323,0.00000664,0.00001975,-0.00000606,-0.00002163,-0.0000160
 3,-0.00001131,0.00000528,-0.00002686,0.00000398,-0.00001261,0.00000626
 ,-0.00000315,-0.00001032,0.00003216,-0.00001996,0.00000450,0.00001109,
 -0.00000669,0.00001580,-0.00000417,0.00000003,-0.00001881,-0.00000481,
 -0.00000332,0.00000602,0.00003189,0.00000026,0.00000377,0.00000778,0.0
 0000255\\\@
 The archive entry for this job was punched.


 We make a living by what we get,
 we make a life by what we give.
                   -- Sir Winston Churchill
 Job cpu time:       0 days  1 hours 17 minutes 49.7 seconds.
 Elapsed time:       0 days  0 hours  6 minutes 36.0 seconds.
 File lengths (MBytes):  RWF=    176 Int=      0 D2E=      0 Chk=     14 Scr=      1
 Normal termination of Gaussian 16 at Fri Jul 29 15:17:27 2022.
